+ 1.5 7 6 tcp 40 ------- 0 4.0.0.0 0.0.2.0 0 0
- 1.5 7 6 tcp 40 ------- 0 4.0.0.0 0.0.2.0 0 0
r 1.535004 7 6 tcp 40 ------- 0 4.0.0.0 0.0.2.0 0 0
+ 1.535004 6 5 tcp 40 ------- 0 4.0.0.0 0.0.2.0 0 0
- 1.535004 6 5 tcp 40 ------- 0 4.0.0.0 0.0.2.0 0 0
r 1.550008 6 5 tcp 40 ------- 0 4.0.0.0 0.0.2.0 0 0
+ 1.550008 5 4 tcp 40 ------- 0 4.0.0.0 0.0.2.0 0 0
- 1.550008 5 4 tcp 40 ------- 0 4.0.0.0 0.0.2.0 0 0
r 1.560008 5 4 tcp 40 ------- 0 4.0.0.0 0.0.2.0 0 0
+ 1.560008 4 0 tcp 40 ------- 0 4.0.0.0 0.0.2.0 0 0
- 1.560008 4 0 tcp 40 ------- 0 4.0.0.0 0.0.2.0 0 0
r 1.560409 4 0 tcp 40 ------- 0 4.0.0.0 0.0.2.0 0 0
+ 1.605 0 1 AM_Data 40 -------- 0 4.0.0.0 0.0.2.0 0 0 0
- 1.605 0 1 AM_Data 40 -------- 0 4.0.0.0 0.0.2.0 0 0 0
r 1.620001 0 1 AM_Data 40 -------- 0 4.0.0.0 0.0.2.0 0 0 0
+ 1.620001 1 2 AM_Data 40 -------- 0 4.0.0.0 0.0.2.0 0 0 0
- 1.622 1 2 HARQ_1 322 -------- 0 4.0.0.0 0.0.2.0 0 0 0
r 1.622005 1 2 AM_Data 40 -------- 0 4.0.0.0 0.0.2.0 0 0 0
+ 1.639005 2 1 AM_Piggyback_Back 40 -------- 0 0.0.2.0 4.0.0.0 0 1 0
+ 1.639017 2 1 AM_Data 40 -------- 0 0.0.2.0 4.0.0.0 0 1 1
- 1.64 2 1 AM_Piggyback_Back 40 -------- 0 0.0.2.0 4.0.0.0 0 1 0
- 1.64 2 1 AM_Data 40 -------- 0 0.0.2.0 4.0.0.0 0 1 1
+ 1.660015 1 0 AM_Piggyback_Back 40 -------- 0 0.0.2.0 4.0.0.0 0 1 0
- 1.660015 1 0 AM_Piggyback_Back 40 -------- 0 0.0.2.0 4.0.0.0 0 1 0
+ 1.660015 1 0 AM_Data 40 -------- 0 0.0.2.0 4.0.0.0 0 1 1
- 1.660016 1 0 AM_Data 40 -------- 0 0.0.2.0 4.0.0.0 0 1 1
r 1.675016 1 0 AM_Piggyback_Back 40 -------- 0 0.0.2.0 4.0.0.0 0 1 0
r 1.675016 1 0 AM_Data 40 -------- 0 0.0.2.0 4.0.0.0 0 1 1
+ 1.675066 0 4 ack 40 ------- 0 0.0.2.0 4.0.0.0 0 1
- 1.675066 0 4 ack 40 ------- 0 0.0.2.0 4.0.0.0 0 1
r 1.675467 0 4 ack 40 ------- 0 0.0.2.0 4.0.0.0 0 1
+ 1.675467 4 5 ack 40 ------- 0 0.0.2.0 4.0.0.0 0 1
- 1.675467 4 5 ack 40 ------- 0 0.0.2.0 4.0.0.0 0 1
r 1.685467 4 5 ack 40 ------- 0 0.0.2.0 4.0.0.0 0 1
+ 1.685467 5 6 ack 40 ------- 0 0.0.2.0 4.0.0.0 0 1
- 1.685467 5 6 ack 40 ------- 0 0.0.2.0 4.0.0.0 0 1
r 1.700471 5 6 ack 40 ------- 0 0.0.2.0 4.0.0.0 0 1
+ 1.700471 6 7 ack 40 ------- 0 0.0.2.0 4.0.0.0 0 1
- 1.700471 6 7 ack 40 ------- 0 0.0.2.0 4.0.0.0 0 1
r 1.735475 6 7 ack 40 ------- 0 0.0.2.0 4.0.0.0 0 1
+ 1.735475 7 6 tcp 40 ------- 0 4.0.0.0 0.0.2.0 1 2
- 1.735475 7 6 tcp 40 ------- 0 4.0.0.0 0.0.2.0 1 2
+ 1.735475 7 6 tcp 140 ------- 0 4.0.0.0 0.0.2.0 1 3
- 1.735479 7 6 tcp 140 ------- 0 4.0.0.0 0.0.2.0 1 3
r 1.770479 7 6 tcp 40 ------- 0 4.0.0.0 0.0.2.0 1 2
+ 1.770479 6 5 tcp 40 ------- 0 4.0.0.0 0.0.2.0 1 2
- 1.770479 6 5 tcp 40 ------- 0 4.0.0.0 0.0.2.0 1 2
r 1.770493 7 6 tcp 140 ------- 0 4.0.0.0 0.0.2.0 1 3
+ 1.770493 6 5 tcp 140 ------- 0 4.0.0.0 0.0.2.0 1 3
- 1.770493 6 5 tcp 140 ------- 0 4.0.0.0 0.0.2.0 1 3
r 1.785483 6 5 tcp 40 ------- 0 4.0.0.0 0.0.2.0 1 2
+ 1.785483 5 4 tcp 40 ------- 0 4.0.0.0 0.0.2.0 1 2
- 1.785483 5 4 tcp 40 ------- 0 4.0.0.0 0.0.2.0 1 2
r 1.785507 6 5 tcp 140 ------- 0 4.0.0.0 0.0.2.0 1 3
+ 1.785507 5 4 tcp 140 ------- 0 4.0.0.0 0.0.2.0 1 3
- 1.785507 5 4 tcp 140 ------- 0 4.0.0.0 0.0.2.0 1 3
r 1.795483 5 4 tcp 40 ------- 0 4.0.0.0 0.0.2.0 1 2
+ 1.795483 4 0 tcp 40 ------- 0 4.0.0.0 0.0.2.0 1 2
- 1.795483 4 0 tcp 40 ------- 0 4.0.0.0 0.0.2.0 1 2
r 1.795507 5 4 tcp 140 ------- 0 4.0.0.0 0.0.2.0 1 3
+ 1.795507 4 0 tcp 140 ------- 0 4.0.0.0 0.0.2.0 1 3
- 1.795507 4 0 tcp 140 ------- 0 4.0.0.0 0.0.2.0 1 3
r 1.795883 4 0 tcp 40 ------- 0 4.0.0.0 0.0.2.0 1 2
r 1.795909 4 0 tcp 140 ------- 0 4.0.0.0 0.0.2.0 1 3
+ 1.815 0 1 AM_Data 40 -------- 0 4.0.0.0 0.0.2.0 1 2 1
- 1.815 0 1 AM_Data 40 -------- 0 4.0.0.0 0.0.2.0 1 2 1
+ 1.815 0 1 AM_Data 40 -------- 0 4.0.0.0 0.0.2.0 1 3 2
+ 1.815 0 1 AM_Data 40 -------- 0 4.0.0.0 0.0.2.0 1 3 3
+ 1.815 0 1 AM_Data 40 -------- 0 4.0.0.0 0.0.2.0 1 3 4
+ 1.815 0 1 AM_Piggyback_Back 40 -------- 0 4.0.0.0 0.0.2.0 1 3 5
- 1.815001 0 1 AM_Data 40 -------- 0 4.0.0.0 0.0.2.0 1 3 2
- 1.815001 0 1 AM_Data 40 -------- 0 4.0.0.0 0.0.2.0 1 3 3
- 1.815002 0 1 AM_Data 40 -------- 0 4.0.0.0 0.0.2.0 1 3 4
- 1.815002 0 1 AM_Piggyback_Back 40 -------- 0 4.0.0.0 0.0.2.0 1 3 5
+ 1.819003 2 1 AM_Data 40 -------- 0 0.0.2.0 4.0.0.0 0 1 1
- 1.82 2 1 AM_Data 40 -------- 0 0.0.2.0 4.0.0.0 0 1 1
r 1.830001 0 1 AM_Data 40 -------- 0 4.0.0.0 0.0.2.0 1 2 1
+ 1.830001 1 2 AM_Data 40 -------- 0 4.0.0.0 0.0.2.0 1 2 1
r 1.830001 0 1 AM_Data 40 -------- 0 4.0.0.0 0.0.2.0 1 3 2
+ 1.830001 1 2 AM_Data 40 -------- 0 4.0.0.0 0.0.2.0 1 3 2
r 1.830002 0 1 AM_Data 40 -------- 0 4.0.0.0 0.0.2.0 1 3 3
+ 1.830002 1 2 AM_Data 40 -------- 0 4.0.0.0 0.0.2.0 1 3 3
r 1.830002 0 1 AM_Data 40 -------- 0 4.0.0.0 0.0.2.0 1 3 4
+ 1.830002 1 2 AM_Data 40 -------- 0 4.0.0.0 0.0.2.0 1 3 4
r 1.830003 0 1 AM_Piggyback_Back 40 -------- 0 4.0.0.0 0.0.2.0 1 3 5
+ 1.830003 1 2 AM_Piggyback_Back 40 -------- 0 4.0.0.0 0.0.2.0 1 3 5
- 1.832 1 2 HARQ_1 322 -------- 0 4.0.0.0 0.0.2.0 1 2 1
r 1.832005 1 2 AM_Data 40 -------- 0 4.0.0.0 0.0.2.0 1 2 1
r 1.832005 1 2 AM_Data 40 -------- 0 4.0.0.0 0.0.2.0 1 3 2
r 1.832005 1 2 AM_Data 40 -------- 0 4.0.0.0 0.0.2.0 1 3 3
r 1.832005 1 2 AM_Data 40 -------- 0 4.0.0.0 0.0.2.0 1 3 4
r 1.832005 1 2 AM_Piggyback_Back 40 -------- 0 4.0.0.0 0.0.2.0 1 3 5
v 1.8320550000000015 eval {set sim_annotation {_o233 received data "my mesage 1"}}
+ 1.839017 2 1 AM_Bitmap_ack 40 -------- 0 1023.2047.2047.-1 1023.2047.2047.-1 -1 0 5
- 1.84 2 1 AM_Bitmap_ack 40 -------- 0 1023.2047.2047.-1 1023.2047.2047.-1 -1 0 5
+ 1.840015 1 0 AM_Data 40 -------- 0 0.0.2.0 4.0.0.0 0 1 1
- 1.840015 1 0 AM_Data 40 -------- 0 0.0.2.0 4.0.0.0 0 1 1
r 1.855016 1 0 AM_Data 40 -------- 0 0.0.2.0 4.0.0.0 0 1 1
+ 1.860015 1 0 AM_Bitmap_ack 40 -------- 0 1023.2047.2047.-1 1023.2047.2047.-1 -1 0 5
- 1.860015 1 0 AM_Bitmap_ack 40 -------- 0 1023.2047.2047.-1 1023.2047.2047.-1 -1 0 5
r 1.875016 1 0 AM_Bitmap_ack 40 -------- 0 1023.2047.2047.-1 1023.2047.2047.-1 -1 0 5
+ 1.919002 2 1 AM_Data 40 -------- 0 0.0.2.0 4.0.0.0 1 4 2
- 1.92 2 1 AM_Data 40 -------- 0 0.0.2.0 4.0.0.0 1 4 2
+ 1.940015 1 0 AM_Data 40 -------- 0 0.0.2.0 4.0.0.0 1 4 2
- 1.940015 1 0 AM_Data 40 -------- 0 0.0.2.0 4.0.0.0 1 4 2
r 1.955016 1 0 AM_Data 40 -------- 0 0.0.2.0 4.0.0.0 1 4 2
+ 1.955066 0 4 ack 40 ------- 0 0.0.2.0 4.0.0.0 1 4
- 1.955066 0 4 ack 40 ------- 0 0.0.2.0 4.0.0.0 1 4
r 1.955466 0 4 ack 40 ------- 0 0.0.2.0 4.0.0.0 1 4
+ 1.955466 4 5 ack 40 ------- 0 0.0.2.0 4.0.0.0 1 4
- 1.955466 4 5 ack 40 ------- 0 0.0.2.0 4.0.0.0 1 4
r 1.965466 4 5 ack 40 ------- 0 0.0.2.0 4.0.0.0 1 4
+ 1.965466 5 6 ack 40 ------- 0 0.0.2.0 4.0.0.0 1 4
- 1.965466 5 6 ack 40 ------- 0 0.0.2.0 4.0.0.0 1 4
r 1.98047 5 6 ack 40 ------- 0 0.0.2.0 4.0.0.0 1 4
+ 1.98047 6 7 ack 40 ------- 0 0.0.2.0 4.0.0.0 1 4
- 1.98047 6 7 ack 40 ------- 0 0.0.2.0 4.0.0.0 1 4
r 2.015474 6 7 ack 40 ------- 0 0.0.2.0 4.0.0.0 1 4
+ 2.099005 2 1 AM_Data 40 -------- 0 0.0.2.0 4.0.0.0 1 4 2
- 2.1 2 1 AM_Data 40 -------- 0 0.0.2.0 4.0.0.0 1 4 2
+ 2.120015 1 0 AM_Data 40 -------- 0 0.0.2.0 4.0.0.0 1 4 2
- 2.120015 1 0 AM_Data 40 -------- 0 0.0.2.0 4.0.0.0 1 4 2
r 2.135016 1 0 AM_Data 40 -------- 0 0.0.2.0 4.0.0.0 1 4 2
+ 2.279009 2 1 AM_Data 40 -------- 0 0.0.2.0 4.0.0.0 1 4 2
- 2.28 2 1 AM_Data 40 -------- 0 0.0.2.0 4.0.0.0 1 4 2
+ 2.300015 1 0 AM_Data 40 -------- 0 0.0.2.0 4.0.0.0 1 4 2
- 2.300015 1 0 AM_Data 40 -------- 0 0.0.2.0 4.0.0.0 1 4 2
r 2.315016 1 0 AM_Data 40 -------- 0 0.0.2.0 4.0.0.0 1 4 2
+ 2.459017 2 1 AM_Data 40 -------- 0 0.0.2.0 4.0.0.0 1 4 2
- 2.46 2 1 AM_Data 40 -------- 0 0.0.2.0 4.0.0.0 1 4 2
+ 2.480015 1 0 AM_Data 40 -------- 0 0.0.2.0 4.0.0.0 1 4 2
- 2.480015 1 0 AM_Data 40 -------- 0 0.0.2.0 4.0.0.0 1 4 2
r 2.495016 1 0 AM_Data 40 -------- 0 0.0.2.0 4.0.0.0 1 4 2
+ 2.5 7 6 tcp 140 ---A--- 0 4.0.0.0 0.0.2.0 101 5
- 2.5 7 6 tcp 140 ---A--- 0 4.0.0.0 0.0.2.0 101 5
r 2.535014 7 6 tcp 140 ---A--- 0 4.0.0.0 0.0.2.0 101 5
+ 2.535014 6 5 tcp 140 ---A--- 0 4.0.0.0 0.0.2.0 101 5
- 2.535014 6 5 tcp 140 ---A--- 0 4.0.0.0 0.0.2.0 101 5
r 2.550028 6 5 tcp 140 ---A--- 0 4.0.0.0 0.0.2.0 101 5
+ 2.550028 5 4 tcp 140 ---A--- 0 4.0.0.0 0.0.2.0 101 5
- 2.550028 5 4 tcp 140 ---A--- 0 4.0.0.0 0.0.2.0 101 5
r 2.560028 5 4 tcp 140 ---A--- 0 4.0.0.0 0.0.2.0 101 5
+ 2.560028 4 0 tcp 140 ---A--- 0 4.0.0.0 0.0.2.0 101 5
- 2.560028 4 0 tcp 140 ---A--- 0 4.0.0.0 0.0.2.0 101 5
r 2.56043 4 0 tcp 140 ---A--- 0 4.0.0.0 0.0.2.0 101 5
+ 2.595 0 1 AM_Data 40 ---A---- 0 4.0.0.0 0.0.2.0 101 5 6
- 2.595 0 1 AM_Data 40 ---A---- 0 4.0.0.0 0.0.2.0 101 5 6
+ 2.595 0 1 AM_Data 40 ---A---- 0 4.0.0.0 0.0.2.0 101 5 7
+ 2.595 0 1 AM_Data 40 ---A---- 0 4.0.0.0 0.0.2.0 101 5 8
+ 2.595 0 1 AM_Piggyback_Back 40 ---A---- 0 4.0.0.0 0.0.2.0 101 5 9
- 2.595001 0 1 AM_Data 40 ---A---- 0 4.0.0.0 0.0.2.0 101 5 7
- 2.595001 0 1 AM_Data 40 ---A---- 0 4.0.0.0 0.0.2.0 101 5 8
- 2.595002 0 1 AM_Piggyback_Back 40 ---A---- 0 4.0.0.0 0.0.2.0 101 5 9
r 2.610001 0 1 AM_Data 40 ---A---- 0 4.0.0.0 0.0.2.0 101 5 6
+ 2.610001 1 2 AM_Data 40 ---A---- 0 4.0.0.0 0.0.2.0 101 5 6
r 2.610001 0 1 AM_Data 40 ---A---- 0 4.0.0.0 0.0.2.0 101 5 7
+ 2.610001 1 2 AM_Data 40 ---A---- 0 4.0.0.0 0.0.2.0 101 5 7
r 2.610002 0 1 AM_Data 40 ---A---- 0 4.0.0.0 0.0.2.0 101 5 8
+ 2.610002 1 2 AM_Data 40 ---A---- 0 4.0.0.0 0.0.2.0 101 5 8
r 2.610002 0 1 AM_Piggyback_Back 40 ---A---- 0 4.0.0.0 0.0.2.0 101 5 9
+ 2.610002 1 2 AM_Piggyback_Back 40 ---A---- 0 4.0.0.0 0.0.2.0 101 5 9
- 2.612 1 2 HARQ_1 322 ---A---- 0 4.0.0.0 0.0.2.0 101 5 6
r 2.612005 1 2 AM_Data 40 ---A---- 0 4.0.0.0 0.0.2.0 101 5 6
r 2.612005 1 2 AM_Data 40 ---A---- 0 4.0.0.0 0.0.2.0 101 5 7
r 2.612005 1 2 AM_Data 40 ---A---- 0 4.0.0.0 0.0.2.0 101 5 8
r 2.612005 1 2 AM_Piggyback_Back 40 ---A---- 0 4.0.0.0 0.0.2.0 101 5 9
v 2.6120549999999336 eval {set sim_annotation {_o233 received data "my mesage 2"}}
+ 2.619014 2 1 AM_Bitmap_ack 40 -------- 0 1023.2047.2047.-1 1023.2047.2047.-1 -1 0 9
- 2.62 2 1 AM_Bitmap_ack 40 -------- 0 1023.2047.2047.-1 1023.2047.2047.-1 -1 0 9
+ 2.640015 1 0 AM_Bitmap_ack 40 -------- 0 1023.2047.2047.-1 1023.2047.2047.-1 -1 0 9
- 2.640015 1 0 AM_Bitmap_ack 40 -------- 0 1023.2047.2047.-1 1023.2047.2047.-1 -1 0 9
r 2.655016 1 0 AM_Bitmap_ack 40 -------- 0 1023.2047.2047.-1 1023.2047.2047.-1 -1 0 9
+ 2.719008 2 1 AM_Data 40 -------- 0 0.0.2.0 4.0.0.0 1 6 3
- 2.72 2 1 AM_Data 40 -------- 0 0.0.2.0 4.0.0.0 1 6 3
+ 2.740015 1 0 AM_Data 40 -------- 0 0.0.2.0 4.0.0.0 1 6 3
- 2.740015 1 0 AM_Data 40 -------- 0 0.0.2.0 4.0.0.0 1 6 3
r 2.755016 1 0 AM_Data 40 -------- 0 0.0.2.0 4.0.0.0 1 6 3
+ 2.755066 0 4 ack 40 ------- 0 0.0.2.0 4.0.0.0 1 6
- 2.755066 0 4 ack 40 ------- 0 0.0.2.0 4.0.0.0 1 6
r 2.755466 0 4 ack 40 ------- 0 0.0.2.0 4.0.0.0 1 6
+ 2.755466 4 5 ack 40 ------- 0 0.0.2.0 4.0.0.0 1 6
- 2.755466 4 5 ack 40 ------- 0 0.0.2.0 4.0.0.0 1 6
r 2.765466 4 5 ack 40 ------- 0 0.0.2.0 4.0.0.0 1 6
+ 2.765466 5 6 ack 40 ------- 0 0.0.2.0 4.0.0.0 1 6
- 2.765466 5 6 ack 40 ------- 0 0.0.2.0 4.0.0.0 1 6
r 2.78047 5 6 ack 40 ------- 0 0.0.2.0 4.0.0.0 1 6
+ 2.78047 6 7 ack 40 ------- 0 0.0.2.0 4.0.0.0 1 6
- 2.78047 6 7 ack 40 ------- 0 0.0.2.0 4.0.0.0 1 6
r 2.815474 6 7 ack 40 ------- 0 0.0.2.0 4.0.0.0 1 6
+ 2.899004 2 1 AM_Data 40 -------- 0 0.0.2.0 4.0.0.0 1 6 3
- 2.9 2 1 AM_Data 40 -------- 0 0.0.2.0 4.0.0.0 1 6 3
+ 2.920015 1 0 AM_Data 40 -------- 0 0.0.2.0 4.0.0.0 1 6 3
- 2.920015 1 0 AM_Data 40 -------- 0 0.0.2.0 4.0.0.0 1 6 3
r 2.935016 1 0 AM_Data 40 -------- 0 0.0.2.0 4.0.0.0 1 6 3
+ 3.079018 2 1 AM_Data 40 -------- 0 0.0.2.0 4.0.0.0 1 6 3
- 3.08 2 1 AM_Data 40 -------- 0 0.0.2.0 4.0.0.0 1 6 3
+ 3.100015 1 0 AM_Data 40 -------- 0 0.0.2.0 4.0.0.0 1 6 3
- 3.100015 1 0 AM_Data 40 -------- 0 0.0.2.0 4.0.0.0 1 6 3
r 3.115016 1 0 AM_Data 40 -------- 0 0.0.2.0 4.0.0.0 1 6 3
+ 3.259 2 1 AM_Data 40 -------- 0 0.0.2.0 4.0.0.0 1 6 3
- 3.26 2 1 AM_Data 40 -------- 0 0.0.2.0 4.0.0.0 1 6 3
+ 3.280015 1 0 AM_Data 40 -------- 0 0.0.2.0 4.0.0.0 1 6 3
- 3.280015 1 0 AM_Data 40 -------- 0 0.0.2.0 4.0.0.0 1 6 3
r 3.295016 1 0 AM_Data 40 -------- 0 0.0.2.0 4.0.0.0 1 6 3
+ 3.439002 2 1 AM_Data 40 -------- 0 0.0.2.0 4.0.0.0 1 6 3
- 3.44 2 1 AM_Data 40 -------- 0 0.0.2.0 4.0.0.0 1 6 3
+ 3.460015 1 0 AM_Data 40 -------- 0 0.0.2.0 4.0.0.0 1 6 3
- 3.460015 1 0 AM_Data 40 -------- 0 0.0.2.0 4.0.0.0 1 6 3
r 3.475016 1 0 AM_Data 40 -------- 0 0.0.2.0 4.0.0.0 1 6 3
+ 3.5 7 6 tcp 140 ---A--- 0 4.0.0.0 0.0.2.0 201 7
- 3.5 7 6 tcp 140 ---A--- 0 4.0.0.0 0.0.2.0 201 7
r 3.535014 7 6 tcp 140 ---A--- 0 4.0.0.0 0.0.2.0 201 7
+ 3.535014 6 5 tcp 140 ---A--- 0 4.0.0.0 0.0.2.0 201 7
- 3.535014 6 5 tcp 140 ---A--- 0 4.0.0.0 0.0.2.0 201 7
r 3.550028 6 5 tcp 140 ---A--- 0 4.0.0.0 0.0.2.0 201 7
+ 3.550028 5 4 tcp 140 ---A--- 0 4.0.0.0 0.0.2.0 201 7
- 3.550028 5 4 tcp 140 ---A--- 0 4.0.0.0 0.0.2.0 201 7
r 3.560028 5 4 tcp 140 ---A--- 0 4.0.0.0 0.0.2.0 201 7
+ 3.560028 4 0 tcp 140 ---A--- 0 4.0.0.0 0.0.2.0 201 7
- 3.560028 4 0 tcp 140 ---A--- 0 4.0.0.0 0.0.2.0 201 7
r 3.56043 4 0 tcp 140 ---A--- 0 4.0.0.0 0.0.2.0 201 7
+ 3.585 0 1 AM_Data 40 ---A---- 0 4.0.0.0 0.0.2.0 201 7 10
- 3.585 0 1 AM_Data 40 ---A---- 0 4.0.0.0 0.0.2.0 201 7 10
+ 3.585 0 1 AM_Data 40 ---A---- 0 4.0.0.0 0.0.2.0 201 7 11
+ 3.585 0 1 AM_Data 40 ---A---- 0 4.0.0.0 0.0.2.0 201 7 12
+ 3.585 0 1 AM_Piggyback_Back 40 ---A---- 0 4.0.0.0 0.0.2.0 201 7 13
- 3.585001 0 1 AM_Data 40 ---A---- 0 4.0.0.0 0.0.2.0 201 7 11
- 3.585001 0 1 AM_Data 40 ---A---- 0 4.0.0.0 0.0.2.0 201 7 12
- 3.585002 0 1 AM_Piggyback_Back 40 ---A---- 0 4.0.0.0 0.0.2.0 201 7 13
r 3.600001 0 1 AM_Data 40 ---A---- 0 4.0.0.0 0.0.2.0 201 7 10
+ 3.600001 1 2 AM_Data 40 ---A---- 0 4.0.0.0 0.0.2.0 201 7 10
r 3.600001 0 1 AM_Data 40 ---A---- 0 4.0.0.0 0.0.2.0 201 7 11
+ 3.600001 1 2 AM_Data 40 ---A---- 0 4.0.0.0 0.0.2.0 201 7 11
r 3.600002 0 1 AM_Data 40 ---A---- 0 4.0.0.0 0.0.2.0 201 7 12
+ 3.600002 1 2 AM_Data 40 ---A---- 0 4.0.0.0 0.0.2.0 201 7 12
r 3.600002 0 1 AM_Piggyback_Back 40 ---A---- 0 4.0.0.0 0.0.2.0 201 7 13
+ 3.600002 1 2 AM_Piggyback_Back 40 ---A---- 0 4.0.0.0 0.0.2.0 201 7 13
- 3.602 1 2 HARQ_1 322 ---A---- 0 4.0.0.0 0.0.2.0 201 7 10
r 3.602005 1 2 AM_Data 40 ---A---- 0 4.0.0.0 0.0.2.0 201 7 10
r 3.602005 1 2 AM_Data 40 ---A---- 0 4.0.0.0 0.0.2.0 201 7 11
r 3.602005 1 2 AM_Data 40 ---A---- 0 4.0.0.0 0.0.2.0 201 7 12
r 3.602005 1 2 AM_Piggyback_Back 40 ---A---- 0 4.0.0.0 0.0.2.0 201 7 13
v 3.6020549999998246 eval {set sim_annotation {_o233 received data "my mesage 3"}}
+ 3.619011 2 1 AM_Bitmap_ack 40 -------- 0 1023.2047.2047.-1 1023.2047.2047.-1 -1 0 13
- 3.62 2 1 AM_Bitmap_ack 40 -------- 0 1023.2047.2047.-1 1023.2047.2047.-1 -1 0 13
+ 3.640015 1 0 AM_Bitmap_ack 40 -------- 0 1023.2047.2047.-1 1023.2047.2047.-1 -1 0 13
- 3.640015 1 0 AM_Bitmap_ack 40 -------- 0 1023.2047.2047.-1 1023.2047.2047.-1 -1 0 13
r 3.655016 1 0 AM_Bitmap_ack 40 -------- 0 1023.2047.2047.-1 1023.2047.2047.-1 -1 0 13
+ 3.719011 2 1 AM_Data 40 -------- 0 0.0.2.0 4.0.0.0 1 8 4
- 3.72 2 1 AM_Data 40 -------- 0 0.0.2.0 4.0.0.0 1 8 4
+ 3.740015 1 0 AM_Data 40 -------- 0 0.0.2.0 4.0.0.0 1 8 4
- 3.740015 1 0 AM_Data 40 -------- 0 0.0.2.0 4.0.0.0 1 8 4
r 3.755016 1 0 AM_Data 40 -------- 0 0.0.2.0 4.0.0.0 1 8 4
+ 3.755066 0 4 ack 40 ------- 0 0.0.2.0 4.0.0.0 1 8
- 3.755066 0 4 ack 40 ------- 0 0.0.2.0 4.0.0.0 1 8
r 3.755466 0 4 ack 40 ------- 0 0.0.2.0 4.0.0.0 1 8
+ 3.755466 4 5 ack 40 ------- 0 0.0.2.0 4.0.0.0 1 8
- 3.755466 4 5 ack 40 ------- 0 0.0.2.0 4.0.0.0 1 8
r 3.765466 4 5 ack 40 ------- 0 0.0.2.0 4.0.0.0 1 8
+ 3.765466 5 6 ack 40 ------- 0 0.0.2.0 4.0.0.0 1 8
- 3.765466 5 6 ack 40 ------- 0 0.0.2.0 4.0.0.0 1 8
r 3.78047 5 6 ack 40 ------- 0 0.0.2.0 4.0.0.0 1 8
+ 3.78047 6 7 ack 40 ------- 0 0.0.2.0 4.0.0.0 1 8
- 3.78047 6 7 ack 40 ------- 0 0.0.2.0 4.0.0.0 1 8
r 3.815474 6 7 ack 40 ------- 0 0.0.2.0 4.0.0.0 1 8
+ 3.899007 2 1 AM_Data 40 -------- 0 0.0.2.0 4.0.0.0 1 8 4
- 3.9 2 1 AM_Data 40 -------- 0 0.0.2.0 4.0.0.0 1 8 4
+ 3.920015 1 0 AM_Data 40 -------- 0 0.0.2.0 4.0.0.0 1 8 4
- 3.920015 1 0 AM_Data 40 -------- 0 0.0.2.0 4.0.0.0 1 8 4
r 3.935016 1 0 AM_Data 40 -------- 0 0.0.2.0 4.0.0.0 1 8 4
+ 4.079019 2 1 AM_Data 40 -------- 0 0.0.2.0 4.0.0.0 1 8 4
- 4.08 2 1 AM_Data 40 -------- 0 0.0.2.0 4.0.0.0 1 8 4
+ 4.100015 1 0 AM_Data 40 -------- 0 0.0.2.0 4.0.0.0 1 8 4
- 4.100015 1 0 AM_Data 40 -------- 0 0.0.2.0 4.0.0.0 1 8 4
r 4.115016 1 0 AM_Data 40 -------- 0 0.0.2.0 4.0.0.0 1 8 4
+ 4.259014 2 1 AM_Data 40 -------- 0 0.0.2.0 4.0.0.0 1 8 4
- 4.26 2 1 AM_Data 40 -------- 0 0.0.2.0 4.0.0.0 1 8 4
+ 4.280015 1 0 AM_Data 40 -------- 0 0.0.2.0 4.0.0.0 1 8 4
- 4.280015 1 0 AM_Data 40 -------- 0 0.0.2.0 4.0.0.0 1 8 4
r 4.295016 1 0 AM_Data 40 -------- 0 0.0.2.0 4.0.0.0 1 8 4
+ 4.439002 2 1 AM_Data 40 -------- 0 0.0.2.0 4.0.0.0 1 8 4
- 4.44 2 1 AM_Data 40 -------- 0 0.0.2.0 4.0.0.0 1 8 4
+ 4.460015 1 0 AM_Data 40 -------- 0 0.0.2.0 4.0.0.0 1 8 4
- 4.460015 1 0 AM_Data 40 -------- 0 0.0.2.0 4.0.0.0 1 8 4
r 4.475016 1 0 AM_Data 40 -------- 0 0.0.2.0 4.0.0.0 1 8 4
+ 4.5 7 6 tcp 140 ---A--- 0 4.0.0.0 0.0.2.0 301 9
- 4.5 7 6 tcp 140 ---A--- 0 4.0.0.0 0.0.2.0 301 9
r 4.535014 7 6 tcp 140 ---A--- 0 4.0.0.0 0.0.2.0 301 9
+ 4.535014 6 5 tcp 140 ---A--- 0 4.0.0.0 0.0.2.0 301 9
- 4.535014 6 5 tcp 140 ---A--- 0 4.0.0.0 0.0.2.0 301 9
r 4.550028 6 5 tcp 140 ---A--- 0 4.0.0.0 0.0.2.0 301 9
+ 4.550028 5 4 tcp 140 ---A--- 0 4.0.0.0 0.0.2.0 301 9
- 4.550028 5 4 tcp 140 ---A--- 0 4.0.0.0 0.0.2.0 301 9
r 4.560028 5 4 tcp 140 ---A--- 0 4.0.0.0 0.0.2.0 301 9
+ 4.560028 4 0 tcp 140 ---A--- 0 4.0.0.0 0.0.2.0 301 9
- 4.560028 4 0 tcp 140 ---A--- 0 4.0.0.0 0.0.2.0 301 9
r 4.56043 4 0 tcp 140 ---A--- 0 4.0.0.0 0.0.2.0 301 9
+ 4.605 0 1 AM_Data 40 ---A---- 0 4.0.0.0 0.0.2.0 301 9 14
- 4.605 0 1 AM_Data 40 ---A---- 0 4.0.0.0 0.0.2.0 301 9 14
+ 4.605 0 1 AM_Data 40 ---A---- 0 4.0.0.0 0.0.2.0 301 9 15
+ 4.605 0 1 AM_Data 40 ---A---- 0 4.0.0.0 0.0.2.0 301 9 16
+ 4.605 0 1 AM_Piggyback_Back 40 ---A---- 0 4.0.0.0 0.0.2.0 301 9 17
- 4.605001 0 1 AM_Data 40 ---A---- 0 4.0.0.0 0.0.2.0 301 9 15
- 4.605001 0 1 AM_Data 40 ---A---- 0 4.0.0.0 0.0.2.0 301 9 16
- 4.605002 0 1 AM_Piggyback_Back 40 ---A---- 0 4.0.0.0 0.0.2.0 301 9 17
+ 4.619017 2 1 AM_Data 40 -------- 0 0.0.2.0 4.0.0.0 1 8 4
- 4.62 2 1 AM_Data 40 -------- 0 0.0.2.0 4.0.0.0 1 8 4
r 4.620001 0 1 AM_Data 40 ---A---- 0 4.0.0.0 0.0.2.0 301 9 14
+ 4.620001 1 2 AM_Data 40 ---A---- 0 4.0.0.0 0.0.2.0 301 9 14
r 4.620001 0 1 AM_Data 40 ---A---- 0 4.0.0.0 0.0.2.0 301 9 15
+ 4.620001 1 2 AM_Data 40 ---A---- 0 4.0.0.0 0.0.2.0 301 9 15
r 4.620002 0 1 AM_Data 40 ---A---- 0 4.0.0.0 0.0.2.0 301 9 16
+ 4.620002 1 2 AM_Data 40 ---A---- 0 4.0.0.0 0.0.2.0 301 9 16
r 4.620002 0 1 AM_Piggyback_Back 40 ---A---- 0 4.0.0.0 0.0.2.0 301 9 17
+ 4.620002 1 2 AM_Piggyback_Back 40 ---A---- 0 4.0.0.0 0.0.2.0 301 9 17
- 4.622 1 2 HARQ_1 322 ---A---- 0 4.0.0.0 0.0.2.0 301 9 14
r 4.622005 1 2 AM_Data 40 ---A---- 0 4.0.0.0 0.0.2.0 301 9 14
r 4.622005 1 2 AM_Data 40 ---A---- 0 4.0.0.0 0.0.2.0 301 9 15
r 4.622005 1 2 AM_Data 40 ---A---- 0 4.0.0.0 0.0.2.0 301 9 16
r 4.622005 1 2 AM_Piggyback_Back 40 ---A---- 0 4.0.0.0 0.0.2.0 301 9 17
v 4.6220549999997127 eval {set sim_annotation {_o233 received data "my mesage 4"}}
+ 4.639002 2 1 AM_Bitmap_ack 40 -------- 0 1023.2047.2047.-1 1023.2047.2047.-1 -1 0 17
- 4.64 2 1 AM_Bitmap_ack 40 -------- 0 1023.2047.2047.-1 1023.2047.2047.-1 -1 0 17
+ 4.640015 1 0 AM_Data 40 -------- 0 0.0.2.0 4.0.0.0 1 8 4
- 4.640015 1 0 AM_Data 40 -------- 0 0.0.2.0 4.0.0.0 1 8 4
r 4.655016 1 0 AM_Data 40 -------- 0 0.0.2.0 4.0.0.0 1 8 4
+ 4.660015 1 0 AM_Bitmap_ack 40 -------- 0 1023.2047.2047.-1 1023.2047.2047.-1 -1 0 17
- 4.660015 1 0 AM_Bitmap_ack 40 -------- 0 1023.2047.2047.-1 1023.2047.2047.-1 -1 0 17
r 4.675016 1 0 AM_Bitmap_ack 40 -------- 0 1023.2047.2047.-1 1023.2047.2047.-1 -1 0 17
+ 4.719015 2 1 AM_Data 40 -------- 0 0.0.2.0 4.0.0.0 1 10 5
- 4.72 2 1 AM_Data 40 -------- 0 0.0.2.0 4.0.0.0 1 10 5
+ 4.740015 1 0 AM_Data 40 -------- 0 0.0.2.0 4.0.0.0 1 10 5
- 4.740015 1 0 AM_Data 40 -------- 0 0.0.2.0 4.0.0.0 1 10 5
r 4.755016 1 0 AM_Data 40 -------- 0 0.0.2.0 4.0.0.0 1 10 5
+ 4.755066 0 4 ack 40 ------- 0 0.0.2.0 4.0.0.0 1 10
- 4.755066 0 4 ack 40 ------- 0 0.0.2.0 4.0.0.0 1 10
r 4.755466 0 4 ack 40 ------- 0 0.0.2.0 4.0.0.0 1 10
+ 4.755466 4 5 ack 40 ------- 0 0.0.2.0 4.0.0.0 1 10
- 4.755466 4 5 ack 40 ------- 0 0.0.2.0 4.0.0.0 1 10
r 4.765466 4 5 ack 40 ------- 0 0.0.2.0 4.0.0.0 1 10
+ 4.765466 5 6 ack 40 ------- 0 0.0.2.0 4.0.0.0 1 10
- 4.765466 5 6 ack 40 ------- 0 0.0.2.0 4.0.0.0 1 10
r 4.78047 5 6 ack 40 ------- 0 0.0.2.0 4.0.0.0 1 10
+ 4.78047 6 7 ack 40 ------- 0 0.0.2.0 4.0.0.0 1 10
- 4.78047 6 7 ack 40 ------- 0 0.0.2.0 4.0.0.0 1 10
r 4.815474 6 7 ack 40 ------- 0 0.0.2.0 4.0.0.0 1 10
+ 4.899015 2 1 AM_Data 40 -------- 0 0.0.2.0 4.0.0.0 1 10 5
- 4.9 2 1 AM_Data 40 -------- 0 0.0.2.0 4.0.0.0 1 10 5
+ 4.920015 1 0 AM_Data 40 -------- 0 0.0.2.0 4.0.0.0 1 10 5
- 4.920015 1 0 AM_Data 40 -------- 0 0.0.2.0 4.0.0.0 1 10 5
r 4.935016 1 0 AM_Data 40 -------- 0 0.0.2.0 4.0.0.0 1 10 5
+ 5.079011 2 1 AM_Data 40 -------- 0 0.0.2.0 4.0.0.0 1 10 5
- 5.08 2 1 AM_Data 40 -------- 0 0.0.2.0 4.0.0.0 1 10 5
+ 5.100015 1 0 AM_Data 40 -------- 0 0.0.2.0 4.0.0.0 1 10 5
- 5.100015 1 0 AM_Data 40 -------- 0 0.0.2.0 4.0.0.0 1 10 5
r 5.115016 1 0 AM_Data 40 -------- 0 0.0.2.0 4.0.0.0 1 10 5
+ 5.259013 2 1 AM_Data 40 -------- 0 0.0.2.0 4.0.0.0 1 10 5
- 5.26 2 1 AM_Data 40 -------- 0 0.0.2.0 4.0.0.0 1 10 5
+ 5.280015 1 0 AM_Data 40 -------- 0 0.0.2.0 4.0.0.0 1 10 5
- 5.280015 1 0 AM_Data 40 -------- 0 0.0.2.0 4.0.0.0 1 10 5
r 5.295016 1 0 AM_Data 40 -------- 0 0.0.2.0 4.0.0.0 1 10 5
+ 5.439011 2 1 AM_Data 40 -------- 0 0.0.2.0 4.0.0.0 1 10 5
- 5.44 2 1 AM_Data 40 -------- 0 0.0.2.0 4.0.0.0 1 10 5
+ 5.460015 1 0 AM_Data 40 -------- 0 0.0.2.0 4.0.0.0 1 10 5
- 5.460015 1 0 AM_Data 40 -------- 0 0.0.2.0 4.0.0.0 1 10 5
r 5.475016 1 0 AM_Data 40 -------- 0 0.0.2.0 4.0.0.0 1 10 5
+ 5.619002 2 1 AM_Data 40 -------- 0 0.0.2.0 4.0.0.0 1 10 5
- 5.62 2 1 AM_Data 40 -------- 0 0.0.2.0 4.0.0.0 1 10 5
+ 5.640015 1 0 AM_Data 40 -------- 0 0.0.2.0 4.0.0.0 1 10 5
- 5.640015 1 0 AM_Data 40 -------- 0 0.0.2.0 4.0.0.0 1 10 5
r 5.655016 1 0 AM_Data 40 -------- 0 0.0.2.0 4.0.0.0 1 10 5
+ 5.775 0 1 AM_Bitmap_ack 40 -------- 0 1023.2047.2047.-1 1023.2047.2047.-1 -1 0 5
- 5.775 0 1 AM_Bitmap_ack 40 -------- 0 1023.2047.2047.-1 1023.2047.2047.-1 -1 0 5
r 5.790001 0 1 AM_Bitmap_ack 40 -------- 0 1023.2047.2047.-1 1023.2047.2047.-1 -1 0 5
+ 5.790001 1 2 AM_Bitmap_ack 40 -------- 0 1023.2047.2047.-1 1023.2047.2047.-1 -1 0 5
- 5.792 1 2 HARQ_1 322 -------- 0 1023.2047.2047.-1 1023.2047.2047.-1 -1 0 5
r 5.792005 1 2 AM_Bitmap_ack 40 -------- 0 1023.2047.2047.-1 1023.2047.2047.-1 -1 0 5
