V -t * -v 1.0a5 -a 0
W -t * -x 1000 -y 1000
A -t * -n 3 -p 0 -o 0xffffffff -c 31 -a 1
A -t * -h 1 -m 1023 -s 22
A -t * -h 2 -m 2047 -s 11
A -t * -h 3 -m 2047 -s 0
n -t * -a 0.0.0 -s 0 -S UP -v circle -c black -i black
n -t * -a 4.0.0 -s 10 -S UP -v circle -c black -i black -x 610 -y 1000 -Z 0
n -t * -a 2.0.0 -s 5 -S UP -v circle -c black -i black -x 500 -y 1000 -Z 0
n -t * -a 1.0.0 -s 1 -S UP -v circle -c black -i black
n -t * -a 5.0.0 -s 11 -S UP -v circle -c black -i black -x 1160 -y 1000 -Z 0
n -t * -a 3.0.0 -s 7 -S UP -v circle -c black -i black -x 1250 -y 1000 -Z 0
l -t * -s 1 -d 0 -S UP -r 800000000 -D 0.029999999999999999 -c black
l -t * -s 5 -d 1 -S UP -r 800000000 -D 0.014999999999999999 -c black
l -t * -s 7 -d 1 -S UP -r 800000000 -D 0.014999999999999999 -c black
l -t * -s 10 -d 1 -S UP -r 800000000 -D 0.014999999999999999 -c black
l -t * -s 11 -d 1 -S UP -r 800000000 -D 0.014999999999999999 -c black
r -t 0.004045805 -s 6 -d -1 -p UNKN -e 22 -c 2 -a 0 -i 0 -k MAC
r -t 0.004045835 -s 9 -d -1 -p UNKN -e 22 -c 2 -a 0 -i 0 -k MAC
r -t 0.004090250 -s 6 -d -1 -p UNKN -e 31 -c 2 -a 0 -i 0 -k MAC
r -t 0.004090280 -s 9 -d -1 -p UNKN -e 31 -c 2 -a 0 -i 0 -k MAC
r -t 0.004101265 -s 8 -d -1 -p UNKN -e 22 -c 2 -a 0 -i 0 -k MAC
r -t 0.004134694 -s 6 -d -1 -p UNKN -e 43 -c 2 -a 0 -i 0 -k MAC
r -t 0.004134724 -s 9 -d -1 -p UNKN -e 43 -c 2 -a 0 -i 0 -k MAC
r -t 0.004145710 -s 8 -d -1 -p UNKN -e 31 -c 2 -a 0 -i 0 -k MAC
r -t 0.004179138 -s 6 -d -1 -p UNKN -e 35 -c 2 -a 0 -i 0 -k MAC
r -t 0.004179168 -s 9 -d -1 -p UNKN -e 35 -c 2 -a 0 -i 0 -k MAC
r -t 0.004190154 -s 8 -d -1 -p UNKN -e 43 -c 2 -a 0 -i 0 -k MAC
r -t 0.004234599 -s 8 -d -1 -p UNKN -e 35 -c 2 -a 0 -i 0 -k MAC
r -t 0.008045805 -s 6 -d -1 -p UNKN -e 22 -c 2 -a 0 -i 0 -k MAC
r -t 0.008045835 -s 9 -d -1 -p UNKN -e 22 -c 2 -a 0 -i 0 -k MAC
r -t 0.008090250 -s 6 -d -1 -p UNKN -e 31 -c 2 -a 0 -i 0 -k MAC
r -t 0.008090280 -s 9 -d -1 -p UNKN -e 31 -c 2 -a 0 -i 0 -k MAC
r -t 0.008101265 -s 8 -d -1 -p UNKN -e 22 -c 2 -a 0 -i 0 -k MAC
r -t 0.008145710 -s 8 -d -1 -p UNKN -e 31 -c 2 -a 0 -i 0 -k MAC
+ -t 0.009219321 -s 8 -d -1 -p UNKN -e 19 -c 2 -a 0 -i 0 -k MAC 
- -t 0.009219321 -s 8 -d -1 -p UNKN -e 19 -c 2 -a 0 -i 0 -k MAC
h -t 0.009219321 -s 8 -d -1 -p UNKN -e 19 -c 2 -a 0 -i 0 -k MAC
+ -t 0.009297194 -s 6 -d -1 -p UNKN -e 19 -c 2 -a 0 -i 0 -k MAC 
- -t 0.009297194 -s 6 -d -1 -p UNKN -e 19 -c 2 -a 0 -i 0 -k MAC
h -t 0.009297194 -s 6 -d -1 -p UNKN -e 19 -c 2 -a 0 -i 0 -k MAC
+ -t 0.009563891 -s 9 -d -1 -p UNKN -e 19 -c 2 -a 0 -i 0 -k MAC 
- -t 0.009563891 -s 9 -d -1 -p UNKN -e 19 -c 2 -a 0 -i 0 -k MAC
h -t 0.009563891 -s 9 -d -1 -p UNKN -e 19 -c 2 -a 0 -i 0 -k MAC
r -t 0.012045805 -s 6 -d -1 -p UNKN -e 22 -c 2 -a 0 -i 0 -k MAC
r -t 0.012045835 -s 9 -d -1 -p UNKN -e 22 -c 2 -a 0 -i 0 -k MAC
r -t 0.012090250 -s 6 -d -1 -p UNKN -e 37 -c 2 -a 0 -i 0 -k MAC
r -t 0.012090280 -s 9 -d -1 -p UNKN -e 37 -c 2 -a 0 -i 0 -k MAC
r -t 0.012101265 -s 8 -d -1 -p UNKN -e 22 -c 2 -a 0 -i 0 -k MAC
r -t 0.012134694 -s 6 -d -1 -p UNKN -e 41 -c 2 -a 0 -i 0 -k MAC
r -t 0.012134724 -s 9 -d -1 -p UNKN -e 41 -c 2 -a 0 -i 0 -k MAC
r -t 0.012145710 -s 8 -d -1 -p UNKN -e 37 -c 2 -a 0 -i 0 -k MAC
r -t 0.012179138 -s 6 -d -1 -p UNKN -e 28 -c 2 -a 0 -i 0 -k MAC
r -t 0.012179168 -s 9 -d -1 -p UNKN -e 28 -c 2 -a 0 -i 0 -k MAC
r -t 0.012190154 -s 8 -d -1 -p UNKN -e 41 -c 2 -a 0 -i 0 -k MAC
r -t 0.012223583 -s 6 -d -1 -p UNKN -e 28 -c 2 -a 0 -i 0 -k MAC
r -t 0.012223613 -s 9 -d -1 -p UNKN -e 28 -c 2 -a 0 -i 0 -k MAC
r -t 0.012234599 -s 8 -d -1 -p UNKN -e 28 -c 2 -a 0 -i 0 -k MAC
+ -t 0.013875002 -s 9 -d -1 -p UNKN -e 6 -c 2 -a 0 -i 0 -k MAC 
- -t 0.013875002 -s 9 -d -1 -p UNKN -e 6 -c 2 -a 0 -i 0 -k MAC
h -t 0.013875002 -s 9 -d -1 -p UNKN -e 6 -c 2 -a 0 -i 0 -k MAC
+ -t 0.014141638 -s 6 -d -1 -p UNKN -e 18 -c 2 -a 0 -i 0 -k MAC 
- -t 0.014141638 -s 6 -d -1 -p UNKN -e 18 -c 2 -a 0 -i 0 -k MAC
h -t 0.014141638 -s 6 -d -1 -p UNKN -e 18 -c 2 -a 0 -i 0 -k MAC
+ -t 0.014197099 -s 8 -d -1 -p UNKN -e 18 -c 2 -a 0 -i 0 -k MAC 
- -t 0.014197099 -s 8 -d -1 -p UNKN -e 18 -c 2 -a 0 -i 0 -k MAC
h -t 0.014197099 -s 8 -d -1 -p UNKN -e 18 -c 2 -a 0 -i 0 -k MAC
r -t 0.016045805 -s 6 -d -1 -p UNKN -e 22 -c 2 -a 0 -i 0 -k MAC
r -t 0.016045835 -s 9 -d -1 -p UNKN -e 22 -c 2 -a 0 -i 0 -k MAC
r -t 0.016090250 -s 6 -d -1 -p UNKN -e 37 -c 2 -a 0 -i 0 -k MAC
r -t 0.016090280 -s 9 -d -1 -p UNKN -e 37 -c 2 -a 0 -i 0 -k MAC
r -t 0.016101265 -s 8 -d -1 -p UNKN -e 22 -c 2 -a 0 -i 0 -k MAC
+ -t 0.016134694 -s 6 -d -1 -p nd_sol -e 48 -c 2 -a 0 -i 0 -k AGT 
- -t 0.016134694 -s 6 -d -1 -p nd_sol -e 48 -c 2 -a 0 -i 0 -k AGT
h -t 0.016134694 -s 6 -d -1 -p nd_sol -e 48 -c 2 -a 0 -i 0 -k AGT
r -t 0.016134694 -s 6 -d -1 -p nd_sol -e 48 -c 2 -a 0 -i 0 -k RTR
r -t 0.016134694 -s 6 -d -1 -p UNKN -e 12 -c 2 -a 0 -i 0 -k MAC
r -t 0.016145710 -s 8 -d -1 -p UNKN -e 37 -c 2 -a 0 -i 0 -k MAC
+ -t 0.016190154 -s 8 -d -1 -p nd_sol -e 48 -c 2 -a 0 -i 1 -k AGT 
- -t 0.016190154 -s 8 -d -1 -p nd_sol -e 48 -c 2 -a 0 -i 1 -k AGT
h -t 0.016190154 -s 8 -d -1 -p nd_sol -e 48 -c 2 -a 0 -i 1 -k AGT
r -t 0.016190154 -s 8 -d -1 -p nd_sol -e 48 -c 2 -a 0 -i 1 -k RTR
r -t 0.016190154 -s 8 -d -1 -p UNKN -e 12 -c 2 -a 0 -i 0 -k MAC
+ -t 0.017131543 -s 8 -d -1 -p nd_sol -e 68 -c 2 -a 0 -i 1 -k RTR 
- -t 0.017131543 -s 8 -d -1 -p nd_sol -e 68 -c 2 -a 0 -i 1 -k RTR
h -t 0.017131543 -s 8 -d -1 -p nd_sol -e 68 -c 2 -a 0 -i 1 -k RTR
+ -t 0.017874972 -s 6 -d -1 -p UNKN -e 6 -c 2 -a 0 -i 0 -k MAC 
- -t 0.017874972 -s 6 -d -1 -p UNKN -e 6 -c 2 -a 0 -i 0 -k MAC
h -t 0.017874972 -s 6 -d -1 -p UNKN -e 6 -c 2 -a 0 -i 0 -k MAC
+ -t 0.017882747 -s 6 -d -1 -p nd_sol -e 68 -c 2 -a 0 -i 0 -k RTR 
- -t 0.017882747 -s 6 -d -1 -p nd_sol -e 68 -c 2 -a 0 -i 0 -k RTR
h -t 0.017882747 -s 6 -d -1 -p nd_sol -e 68 -c 2 -a 0 -i 0 -k RTR
+ -t 0.018141668 -s 9 -d -1 -p UNKN -e 18 -c 2 -a 0 -i 0 -k MAC 
- -t 0.018141668 -s 9 -d -1 -p UNKN -e 18 -c 2 -a 0 -i 0 -k MAC
h -t 0.018141668 -s 9 -d -1 -p UNKN -e 18 -c 2 -a 0 -i 0 -k MAC
+ -t 0.018197099 -s 8 -d -1 -p UNKN -e 12 -c 2 -a 0 -i 0 -k MAC 
- -t 0.018197099 -s 8 -d -1 -p UNKN -e 12 -c 2 -a 0 -i 0 -k MAC
h -t 0.018197099 -s 8 -d -1 -p UNKN -e 12 -c 2 -a 0 -i 0 -k MAC
+ -t 0.018241543 -s 8 -d -1 -p UNKN -e 12 -c 2 -a 0 -i 0 -k MAC 
- -t 0.018241543 -s 8 -d -1 -p UNKN -e 12 -c 2 -a 0 -i 0 -k MAC
h -t 0.018241543 -s 8 -d -1 -p UNKN -e 12 -c 2 -a 0 -i 0 -k MAC
r -t 0.020045805 -s 6 -d -1 -p UNKN -e 22 -c 2 -a 0 -i 0 -k MAC
r -t 0.020045835 -s 9 -d -1 -p UNKN -e 22 -c 2 -a 0 -i 0 -k MAC
r -t 0.020090250 -s 6 -d -1 -p UNKN -e 37 -c 2 -a 0 -i 0 -k MAC
r -t 0.020090280 -s 9 -d -1 -p UNKN -e 37 -c 2 -a 0 -i 0 -k MAC
r -t 0.020101265 -s 8 -d -1 -p UNKN -e 22 -c 2 -a 0 -i 0 -k MAC
+ -t 0.020134724 -s 9 -d -1 -p nd_sol -e 48 -c 2 -a 0 -i 2 -k AGT 
- -t 0.020134724 -s 9 -d -1 -p nd_sol -e 48 -c 2 -a 0 -i 2 -k AGT
h -t 0.020134724 -s 9 -d -1 -p nd_sol -e 48 -c 2 -a 0 -i 2 -k AGT
r -t 0.020134724 -s 9 -d -1 -p nd_sol -e 48 -c 2 -a 0 -i 2 -k RTR
r -t 0.020134724 -s 9 -d -1 -p UNKN -e 12 -c 2 -a 0 -i 0 -k MAC
r -t 0.020145710 -s 8 -d -1 -p UNKN -e 37 -c 2 -a 0 -i 0 -k MAC
r -t 0.020190154 -s 8 -d -1 -p UNKN -e 16 -c 2 -a 0 -i 0 -k MAC
r -t 0.020234599 -s 8 -d -1 -p UNKN -e 16 -c 2 -a 0 -i 0 -k MAC
+ -t 0.021697224 -s 9 -d -1 -p UNKN -e 6 -c 2 -a 0 -i 0 -k MAC 
- -t 0.021697224 -s 9 -d -1 -p UNKN -e 6 -c 2 -a 0 -i 0 -k MAC
h -t 0.021697224 -s 9 -d -1 -p UNKN -e 6 -c 2 -a 0 -i 0 -k MAC
+ -t 0.022141638 -s 6 -d -1 -p UNKN -e 12 -c 2 -a 0 -i 0 -k MAC 
- -t 0.022141638 -s 6 -d -1 -p UNKN -e 12 -c 2 -a 0 -i 0 -k MAC
h -t 0.022141638 -s 6 -d -1 -p UNKN -e 12 -c 2 -a 0 -i 0 -k MAC
+ -t 0.022186083 -s 6 -d -1 -p UNKN -e 12 -c 2 -a 0 -i 0 -k MAC 
- -t 0.022186083 -s 6 -d -1 -p UNKN -e 12 -c 2 -a 0 -i 0 -k MAC
h -t 0.022186083 -s 6 -d -1 -p UNKN -e 12 -c 2 -a 0 -i 0 -k MAC
+ -t 0.022230527 -s 6 -d -1 -p nd_sol -e 74 -c 2 -a 0 -i 0 -k MAC 
- -t 0.022230527 -s 6 -d -1 -p nd_sol -e 74 -c 2 -a 0 -i 0 -k MAC
h -t 0.022230527 -s 6 -d -1 -p nd_sol -e 74 -c 2 -a 0 -i 0 -k MAC
+ -t 0.022241543 -s 8 -d -1 -p UNKN -e 12 -c 2 -a 0 -i 0 -k MAC 
- -t 0.022241543 -s 8 -d -1 -p UNKN -e 12 -c 2 -a 0 -i 0 -k MAC
h -t 0.022241543 -s 8 -d -1 -p UNKN -e 12 -c 2 -a 0 -i 0 -k MAC
+ -t 0.022285988 -s 8 -d -1 -p UNKN -e 12 -c 2 -a 0 -i 0 -k MAC 
- -t 0.022285988 -s 8 -d -1 -p UNKN -e 12 -c 2 -a 0 -i 0 -k MAC
h -t 0.022285988 -s 8 -d -1 -p UNKN -e 12 -c 2 -a 0 -i 0 -k MAC
+ -t 0.022330432 -s 8 -d -1 -p nd_sol -e 74 -c 2 -a 0 -i 1 -k MAC 
- -t 0.022330432 -s 8 -d -1 -p nd_sol -e 74 -c 2 -a 0 -i 1 -k MAC
h -t 0.022330432 -s 8 -d -1 -p nd_sol -e 74 -c 2 -a 0 -i 1 -k MAC
r -t 0.022344419 -s 5 -d -1 -p nd_sol -e 68 -c 2 -a 0 -i 0 -k RTR
r -t 0.022344419 -s 5 -d -1 -p nd_sol -e 68 -c 2 -a 0 -i 0 -k AGT
r -t 0.022444323 -s 7 -d -1 -p nd_sol -e 68 -c 2 -a 0 -i 1 -k RTR
r -t 0.022444323 -s 7 -d -1 -p nd_sol -e 68 -c 2 -a 0 -i 1 -k AGT
r -t 0.024045805 -s 6 -d -1 -p UNKN -e 22 -c 2 -a 0 -i 0 -k MAC
r -t 0.024045835 -s 9 -d -1 -p UNKN -e 22 -c 2 -a 0 -i 0 -k MAC
r -t 0.024090250 -s 6 -d -1 -p UNKN -e 37 -c 2 -a 0 -i 0 -k MAC
r -t 0.024090280 -s 9 -d -1 -p UNKN -e 37 -c 2 -a 0 -i 0 -k MAC
r -t 0.024101265 -s 8 -d -1 -p UNKN -e 22 -c 2 -a 0 -i 0 -k MAC
r -t 0.024134694 -s 6 -d -1 -p UNKN -e 16 -c 2 -a 0 -i 0 -k MAC
r -t 0.024145710 -s 8 -d -1 -p UNKN -e 37 -c 2 -a 0 -i 0 -k MAC
r -t 0.024179138 -s 6 -d -1 -p UNKN -e 16 -c 2 -a 0 -i 0 -k MAC
+ -t 0.024221581 -s 9 -d -1 -p nd_sol -e 68 -c 2 -a 0 -i 2 -k RTR 
- -t 0.024221581 -s 9 -d -1 -p nd_sol -e 68 -c 2 -a 0 -i 2 -k RTR
h -t 0.024221581 -s 9 -d -1 -p nd_sol -e 68 -c 2 -a 0 -i 2 -k RTR
+ -t 0.026008305 -s 6 -d -1 -p UNKN -e 6 -c 2 -a 0 -i 0 -k MAC 
- -t 0.026008305 -s 6 -d -1 -p UNKN -e 6 -c 2 -a 0 -i 0 -k MAC
h -t 0.026008305 -s 6 -d -1 -p UNKN -e 6 -c 2 -a 0 -i 0 -k MAC
+ -t 0.026186113 -s 9 -d -1 -p UNKN -e 12 -c 2 -a 0 -i 0 -k MAC 
- -t 0.026186113 -s 9 -d -1 -p UNKN -e 12 -c 2 -a 0 -i 0 -k MAC
h -t 0.026186113 -s 9 -d -1 -p UNKN -e 12 -c 2 -a 0 -i 0 -k MAC
+ -t 0.026230557 -s 9 -d -1 -p UNKN -e 12 -c 2 -a 0 -i 0 -k MAC 
- -t 0.026230557 -s 9 -d -1 -p UNKN -e 12 -c 2 -a 0 -i 0 -k MAC
h -t 0.026230557 -s 9 -d -1 -p UNKN -e 12 -c 2 -a 0 -i 0 -k MAC
+ -t 0.026275002 -s 9 -d -1 -p nd_sol -e 74 -c 2 -a 0 -i 2 -k MAC 
- -t 0.026275002 -s 9 -d -1 -p nd_sol -e 74 -c 2 -a 0 -i 2 -k MAC
h -t 0.026275002 -s 9 -d -1 -p nd_sol -e 74 -c 2 -a 0 -i 2 -k MAC
r -t 0.026388923 -s 5 -d -1 -p nd_sol -e 68 -c 2 -a 0 -i 2 -k RTR
r -t 0.026388923 -s 5 -d -1 -p nd_sol -e 68 -c 2 -a 0 -i 2 -k AGT
r -t 0.028045805 -s 6 -d -1 -p UNKN -e 22 -c 2 -a 0 -i 0 -k MAC
r -t 0.028045835 -s 9 -d -1 -p UNKN -e 22 -c 2 -a 0 -i 0 -k MAC
r -t 0.028090250 -s 6 -d -1 -p UNKN -e 37 -c 2 -a 0 -i 0 -k MAC
r -t 0.028090280 -s 9 -d -1 -p UNKN -e 37 -c 2 -a 0 -i 0 -k MAC
r -t 0.028101265 -s 8 -d -1 -p UNKN -e 22 -c 2 -a 0 -i 0 -k MAC
r -t 0.028134724 -s 9 -d -1 -p UNKN -e 16 -c 2 -a 0 -i 0 -k MAC
r -t 0.028145710 -s 8 -d -1 -p UNKN -e 37 -c 2 -a 0 -i 0 -k MAC
r -t 0.028179168 -s 9 -d -1 -p UNKN -e 16 -c 2 -a 0 -i 0 -k MAC
+ -t 0.029741668 -s 9 -d -1 -p UNKN -e 6 -c 2 -a 0 -i 0 -k MAC 
- -t 0.029741668 -s 9 -d -1 -p UNKN -e 6 -c 2 -a 0 -i 0 -k MAC
h -t 0.029741668 -s 9 -d -1 -p UNKN -e 6 -c 2 -a 0 -i 0 -k MAC
+ -t 0.030000000 -s 5 -d -1 -p nd_rads -e 96 -c 2 -a 0 -i 3 -k AGT 
- -t 0.030000000 -s 5 -d -1 -p nd_rads -e 96 -c 2 -a 0 -i 3 -k AGT
h -t 0.030000000 -s 5 -d -1 -p nd_rads -e 96 -c 2 -a 0 -i 3 -k AGT
r -t 0.030000000 -s 5 -d -1 -p nd_rads -e 96 -c 2 -a 0 -i 3 -k RTR
+ -t 0.030000000 -s 7 -d -1 -p nd_rads -e 96 -c 2 -a 0 -i 4 -k AGT 
- -t 0.030000000 -s 7 -d -1 -p nd_rads -e 96 -c 2 -a 0 -i 4 -k AGT
h -t 0.030000000 -s 7 -d -1 -p nd_rads -e 96 -c 2 -a 0 -i 4 -k AGT
r -t 0.030000000 -s 7 -d -1 -p nd_rads -e 96 -c 2 -a 0 -i 4 -k RTR
+ -t 0.030000000 -s 5 -d -1 -p nd_rads -e 96 -c 2 -a 0 -i 5 -k AGT 
- -t 0.030000000 -s 5 -d -1 -p nd_rads -e 96 -c 2 -a 0 -i 5 -k AGT
h -t 0.030000000 -s 5 -d -1 -p nd_rads -e 96 -c 2 -a 0 -i 5 -k AGT
r -t 0.030000000 -s 5 -d -1 -p nd_rads -e 96 -c 2 -a 0 -i 5 -k RTR
+ -t 0.030186083 -s 6 -d -1 -p UNKN -e 12 -c 2 -a 0 -i 0 -k MAC 
- -t 0.030186083 -s 6 -d -1 -p UNKN -e 12 -c 2 -a 0 -i 0 -k MAC
h -t 0.030186083 -s 6 -d -1 -p UNKN -e 12 -c 2 -a 0 -i 0 -k MAC
+ -t 0.030230527 -s 6 -d -1 -p UNKN -e 12 -c 2 -a 0 -i 0 -k MAC 
- -t 0.030230527 -s 6 -d -1 -p UNKN -e 12 -c 2 -a 0 -i 0 -k MAC
h -t 0.030230527 -s 6 -d -1 -p UNKN -e 12 -c 2 -a 0 -i 0 -k MAC
+ -t 0.031091985 -s 5 -d -1 -p nd_rads -e 116 -c 2 -a 0 -i 5 -k RTR 
- -t 0.031091985 -s 5 -d -1 -p nd_rads -e 116 -c 2 -a 0 -i 5 -k RTR
h -t 0.031091985 -s 5 -d -1 -p nd_rads -e 116 -c 2 -a 0 -i 5 -k RTR
r -t 0.032045805 -s 6 -d -1 -p UNKN -e 22 -c 2 -a 0 -i 0 -k MAC
r -t 0.032045835 -s 9 -d -1 -p UNKN -e 22 -c 2 -a 0 -i 0 -k MAC
r -t 0.032090250 -s 6 -d -1 -p UNKN -e 37 -c 2 -a 0 -i 0 -k MAC
r -t 0.032090280 -s 9 -d -1 -p UNKN -e 37 -c 2 -a 0 -i 0 -k MAC
r -t 0.032101265 -s 8 -d -1 -p UNKN -e 22 -c 2 -a 0 -i 0 -k MAC
r -t 0.032145710 -s 8 -d -1 -p UNKN -e 37 -c 2 -a 0 -i 0 -k MAC
r -t 0.032179138 -s 6 -d -1 -p nd_rads -e 116 -c 2 -a 0 -i 5 -k MAC
r -t 0.032179168 -s 9 -d -1 -p nd_rads -e 116 -c 2 -a 0 -i 5 -k MAC
r -t 0.032204138 -s 6 -d -1 -p nd_rads -e 116 -c 2 -a 0 -i 5 -k RTR
r -t 0.032204138 -s 6 -d -1 -p nd_rads -e 116 -c 2 -a 0 -i 5 -k AGT
r -t 0.032204168 -s 9 -d -1 -p nd_rads -e 116 -c 2 -a 0 -i 5 -k RTR
r -t 0.032204168 -s 9 -d -1 -p nd_rads -e 116 -c 2 -a 0 -i 5 -k AGT
+ -t 0.034055191 -s 7 -d -1 -p nd_rads -e 116 -c 2 -a 0 -i 4 -k RTR 
- -t 0.034055191 -s 7 -d -1 -p nd_rads -e 116 -c 2 -a 0 -i 4 -k RTR
h -t 0.034055191 -s 7 -d -1 -p nd_rads -e 116 -c 2 -a 0 -i 4 -k RTR
+ -t 0.034141668 -s 9 -d -1 -p UNKN -e 12 -c 2 -a 0 -i 0 -k MAC 
- -t 0.034141668 -s 9 -d -1 -p UNKN -e 12 -c 2 -a 0 -i 0 -k MAC
h -t 0.034141668 -s 9 -d -1 -p UNKN -e 12 -c 2 -a 0 -i 0 -k MAC
+ -t 0.034186113 -s 9 -d -1 -p UNKN -e 12 -c 2 -a 0 -i 0 -k MAC 
- -t 0.034186113 -s 9 -d -1 -p UNKN -e 12 -c 2 -a 0 -i 0 -k MAC
h -t 0.034186113 -s 9 -d -1 -p UNKN -e 12 -c 2 -a 0 -i 0 -k MAC
r -t 0.036045805 -s 6 -d -1 -p UNKN -e 22 -c 2 -a 0 -i 0 -k MAC
r -t 0.036045835 -s 9 -d -1 -p UNKN -e 22 -c 2 -a 0 -i 0 -k MAC
r -t 0.036090250 -s 6 -d -1 -p UNKN -e 37 -c 2 -a 0 -i 0 -k MAC
r -t 0.036090280 -s 9 -d -1 -p UNKN -e 37 -c 2 -a 0 -i 0 -k MAC
r -t 0.036101265 -s 8 -d -1 -p UNKN -e 22 -c 2 -a 0 -i 0 -k MAC
r -t 0.036145710 -s 8 -d -1 -p UNKN -e 37 -c 2 -a 0 -i 0 -k MAC
r -t 0.036234599 -s 8 -d -1 -p nd_rads -e 116 -c 2 -a 0 -i 4 -k MAC
r -t 0.036259599 -s 8 -d -1 -p nd_rads -e 116 -c 2 -a 0 -i 4 -k RTR
r -t 0.036259599 -s 8 -d -1 -p nd_rads -e 116 -c 2 -a 0 -i 4 -k AGT
+ -t 0.039049455 -s 5 -d -1 -p nd_rads -e 116 -c 2 -a 0 -i 3 -k RTR 
- -t 0.039049455 -s 5 -d -1 -p nd_rads -e 116 -c 2 -a 0 -i 3 -k RTR
h -t 0.039049455 -s 5 -d -1 -p nd_rads -e 116 -c 2 -a 0 -i 3 -k RTR
r -t 0.040045805 -s 6 -d -1 -p UNKN -e 22 -c 2 -a 0 -i 0 -k MAC
r -t 0.040045835 -s 9 -d -1 -p UNKN -e 22 -c 2 -a 0 -i 0 -k MAC
r -t 0.040090250 -s 6 -d -1 -p UNKN -e 37 -c 2 -a 0 -i 0 -k MAC
r -t 0.040090280 -s 9 -d -1 -p UNKN -e 37 -c 2 -a 0 -i 0 -k MAC
r -t 0.040101265 -s 8 -d -1 -p UNKN -e 22 -c 2 -a 0 -i 0 -k MAC
r -t 0.040145710 -s 8 -d -1 -p UNKN -e 37 -c 2 -a 0 -i 0 -k MAC
r -t 0.040179138 -s 6 -d -1 -p nd_rads -e 116 -c 2 -a 0 -i 3 -k MAC
r -t 0.040179168 -s 9 -d -1 -p nd_rads -e 116 -c 2 -a 0 -i 3 -k MAC
r -t 0.040204138 -s 6 -d -1 -p nd_rads -e 116 -c 2 -a 0 -i 3 -k RTR
r -t 0.040204138 -s 6 -d -1 -p nd_rads -e 116 -c 2 -a 0 -i 3 -k AGT
r -t 0.040204168 -s 9 -d -1 -p nd_rads -e 116 -c 2 -a 0 -i 3 -k RTR
r -t 0.040204168 -s 9 -d -1 -p nd_rads -e 116 -c 2 -a 0 -i 3 -k AGT
r -t 0.044045805 -s 6 -d -1 -p UNKN -e 22 -c 2 -a 0 -i 0 -k MAC
r -t 0.044045835 -s 9 -d -1 -p UNKN -e 22 -c 2 -a 0 -i 0 -k MAC
+ -t 0.044061336 -s 7 -d -1 -p tcp -e 2 -c 2 -a 0 -i 7 -k AGT 
- -t 0.044061336 -s 7 -d -1 -p tcp -e 2 -c 2 -a 0 -i 7 -k AGT
h -t 0.044061336 -s 7 -d -1 -p tcp -e 2 -c 2 -a 0 -i 7 -k AGT
+ -t 0.0440613356569684 -s 7 -d 1 -p tcp -e 2 -c 0 -i 7 -a 0 -x {3.0.0.0 2.0.0.0 0 ------- null}
- -t 0.0440613356569684 -s 7 -d 1 -p tcp -e 2 -c 0 -i 7 -a 0 -x {3.0.0.0 2.0.0.0 0 ------- null}
h -t 0.0440613356569684 -s 7 -d 1 -p tcp -e 2 -c 0 -i 7 -a 0 -x {3.0.0.0 2.0.0.0 -1 ------- null}
r -t 0.044090250 -s 6 -d -1 -p UNKN -e 37 -c 2 -a 0 -i 0 -k MAC
r -t 0.044090280 -s 9 -d -1 -p UNKN -e 37 -c 2 -a 0 -i 0 -k MAC
r -t 0.044101265 -s 8 -d -1 -p UNKN -e 22 -c 2 -a 0 -i 0 -k MAC
r -t 0.044145710 -s 8 -d -1 -p UNKN -e 37 -c 2 -a 0 -i 0 -k MAC
r -t 0.048045805 -s 6 -d -1 -p UNKN -e 22 -c 2 -a 0 -i 0 -k MAC
r -t 0.048045835 -s 9 -d -1 -p UNKN -e 22 -c 2 -a 0 -i 0 -k MAC
r -t 0.048090250 -s 6 -d -1 -p UNKN -e 37 -c 2 -a 0 -i 0 -k MAC
r -t 0.048090280 -s 9 -d -1 -p UNKN -e 37 -c 2 -a 0 -i 0 -k MAC
r -t 0.048101265 -s 8 -d -1 -p UNKN -e 22 -c 2 -a 0 -i 0 -k MAC
r -t 0.048145710 -s 8 -d -1 -p UNKN -e 37 -c 2 -a 0 -i 0 -k MAC
r -t 0.052045805 -s 6 -d -1 -p UNKN -e 22 -c 2 -a 0 -i 0 -k MAC
r -t 0.052045835 -s 9 -d -1 -p UNKN -e 22 -c 2 -a 0 -i 0 -k MAC
r -t 0.052090250 -s 6 -d -1 -p UNKN -e 37 -c 2 -a 0 -i 0 -k MAC
r -t 0.052090280 -s 9 -d -1 -p UNKN -e 37 -c 2 -a 0 -i 0 -k MAC
r -t 0.052101265 -s 8 -d -1 -p UNKN -e 22 -c 2 -a 0 -i 0 -k MAC
r -t 0.052145710 -s 8 -d -1 -p UNKN -e 37 -c 2 -a 0 -i 0 -k MAC
r -t 0.056045805 -s 6 -d -1 -p UNKN -e 22 -c 2 -a 0 -i 0 -k MAC
r -t 0.056045835 -s 9 -d -1 -p UNKN -e 22 -c 2 -a 0 -i 0 -k MAC
r -t 0.056090250 -s 6 -d -1 -p UNKN -e 37 -c 2 -a 0 -i 0 -k MAC
r -t 0.056090280 -s 9 -d -1 -p UNKN -e 37 -c 2 -a 0 -i 0 -k MAC
r -t 0.056101265 -s 8 -d -1 -p UNKN -e 22 -c 2 -a 0 -i 0 -k MAC
r -t 0.056145710 -s 8 -d -1 -p UNKN -e 37 -c 2 -a 0 -i 0 -k MAC
r -t 0.0590613556569684 -s 7 -d 1 -p tcp -e 2 -c 0 -i 7 -a 0 -x {3.0.0.0 2.0.0.0 0 ------- null}
+ -t 0.0590613556569684 -s 1 -d 5 -p tcp -e 2 -c 0 -i 7 -a 0 -x {3.0.0.0 2.0.0.0 0 ------- null}
- -t 0.0590613556569684 -s 1 -d 5 -p tcp -e 2 -c 0 -i 7 -a 0 -x {3.0.0.0 2.0.0.0 0 ------- null}
h -t 0.0590613556569684 -s 1 -d 5 -p tcp -e 2 -c 0 -i 7 -a 0 -x {3.0.0.0 2.0.0.0 -1 ------- null}
r -t 0.060045805 -s 6 -d -1 -p UNKN -e 22 -c 2 -a 0 -i 0 -k MAC
r -t 0.060045835 -s 9 -d -1 -p UNKN -e 22 -c 2 -a 0 -i 0 -k MAC
r -t 0.060090250 -s 6 -d -1 -p UNKN -e 37 -c 2 -a 0 -i 0 -k MAC
r -t 0.060090280 -s 9 -d -1 -p UNKN -e 37 -c 2 -a 0 -i 0 -k MAC
r -t 0.060101265 -s 8 -d -1 -p UNKN -e 22 -c 2 -a 0 -i 0 -k MAC
r -t 0.060145710 -s 8 -d -1 -p UNKN -e 37 -c 2 -a 0 -i 0 -k MAC
r -t 0.064045805 -s 6 -d -1 -p UNKN -e 22 -c 2 -a 0 -i 0 -k MAC
r -t 0.064045835 -s 9 -d -1 -p UNKN -e 22 -c 2 -a 0 -i 0 -k MAC
r -t 0.064090250 -s 6 -d -1 -p UNKN -e 37 -c 2 -a 0 -i 0 -k MAC
r -t 0.064090280 -s 9 -d -1 -p UNKN -e 37 -c 2 -a 0 -i 0 -k MAC
r -t 0.064101265 -s 8 -d -1 -p UNKN -e 22 -c 2 -a 0 -i 0 -k MAC
r -t 0.064145710 -s 8 -d -1 -p UNKN -e 37 -c 2 -a 0 -i 0 -k MAC
r -t 0.068045805 -s 6 -d -1 -p UNKN -e 22 -c 2 -a 0 -i 0 -k MAC
r -t 0.068045835 -s 9 -d -1 -p UNKN -e 22 -c 2 -a 0 -i 0 -k MAC
r -t 0.068090250 -s 6 -d -1 -p UNKN -e 37 -c 2 -a 0 -i 0 -k MAC
r -t 0.068090280 -s 9 -d -1 -p UNKN -e 37 -c 2 -a 0 -i 0 -k MAC
r -t 0.068101265 -s 8 -d -1 -p UNKN -e 22 -c 2 -a 0 -i 0 -k MAC
r -t 0.068145710 -s 8 -d -1 -p UNKN -e 37 -c 2 -a 0 -i 0 -k MAC
r -t 0.072045805 -s 6 -d -1 -p UNKN -e 22 -c 2 -a 0 -i 0 -k MAC
r -t 0.072045835 -s 9 -d -1 -p UNKN -e 22 -c 2 -a 0 -i 0 -k MAC
r -t 0.072090250 -s 6 -d -1 -p UNKN -e 37 -c 2 -a 0 -i 0 -k MAC
r -t 0.072090280 -s 9 -d -1 -p UNKN -e 37 -c 2 -a 0 -i 0 -k MAC
r -t 0.072101265 -s 8 -d -1 -p UNKN -e 22 -c 2 -a 0 -i 0 -k MAC
r -t 0.072145710 -s 8 -d -1 -p UNKN -e 37 -c 2 -a 0 -i 0 -k MAC
r -t 0.0740613756569684 -s 1 -d 5 -p tcp -e 2 -c 0 -i 7 -a 0 -x {3.0.0.0 2.0.0.0 0 ------- null}
r -t 0.074061376 -s 5 -d -1 -p tcp -e 2 -c 2 -a 0 -i 7 -k AGT
r -t 0.076045805 -s 6 -d -1 -p UNKN -e 22 -c 2 -a 0 -i 0 -k MAC
r -t 0.076045835 -s 9 -d -1 -p UNKN -e 22 -c 2 -a 0 -i 0 -k MAC
r -t 0.076090250 -s 6 -d -1 -p UNKN -e 37 -c 2 -a 0 -i 0 -k MAC
r -t 0.076090280 -s 9 -d -1 -p UNKN -e 37 -c 2 -a 0 -i 0 -k MAC
r -t 0.076101265 -s 8 -d -1 -p UNKN -e 22 -c 2 -a 0 -i 0 -k MAC
r -t 0.076145710 -s 8 -d -1 -p UNKN -e 37 -c 2 -a 0 -i 0 -k MAC
r -t 0.080045805 -s 6 -d -1 -p UNKN -e 22 -c 2 -a 0 -i 0 -k MAC
r -t 0.080045835 -s 9 -d -1 -p UNKN -e 22 -c 2 -a 0 -i 0 -k MAC
r -t 0.080090250 -s 6 -d -1 -p UNKN -e 37 -c 2 -a 0 -i 0 -k MAC
r -t 0.080090280 -s 9 -d -1 -p UNKN -e 37 -c 2 -a 0 -i 0 -k MAC
r -t 0.080101265 -s 8 -d -1 -p UNKN -e 22 -c 2 -a 0 -i 0 -k MAC
r -t 0.080145710 -s 8 -d -1 -p UNKN -e 37 -c 2 -a 0 -i 0 -k MAC
r -t 0.084045805 -s 6 -d -1 -p UNKN -e 22 -c 2 -a 0 -i 0 -k MAC
r -t 0.084045835 -s 9 -d -1 -p UNKN -e 22 -c 2 -a 0 -i 0 -k MAC
r -t 0.084090250 -s 6 -d -1 -p UNKN -e 37 -c 2 -a 0 -i 0 -k MAC
r -t 0.084090280 -s 9 -d -1 -p UNKN -e 37 -c 2 -a 0 -i 0 -k MAC
r -t 0.084101265 -s 8 -d -1 -p UNKN -e 22 -c 2 -a 0 -i 0 -k MAC
r -t 0.084145710 -s 8 -d -1 -p UNKN -e 37 -c 2 -a 0 -i 0 -k MAC
r -t 0.088045805 -s 6 -d -1 -p UNKN -e 22 -c 2 -a 0 -i 0 -k MAC
r -t 0.088045835 -s 9 -d -1 -p UNKN -e 22 -c 2 -a 0 -i 0 -k MAC
r -t 0.088090250 -s 6 -d -1 -p UNKN -e 37 -c 2 -a 0 -i 0 -k MAC
r -t 0.088090280 -s 9 -d -1 -p UNKN -e 37 -c 2 -a 0 -i 0 -k MAC
r -t 0.088101265 -s 8 -d -1 -p UNKN -e 22 -c 2 -a 0 -i 0 -k MAC
r -t 0.088145710 -s 8 -d -1 -p UNKN -e 37 -c 2 -a 0 -i 0 -k MAC
r -t 0.092045805 -s 6 -d -1 -p UNKN -e 22 -c 2 -a 0 -i 0 -k MAC
r -t 0.092045835 -s 9 -d -1 -p UNKN -e 22 -c 2 -a 0 -i 0 -k MAC
r -t 0.092090250 -s 6 -d -1 -p UNKN -e 37 -c 2 -a 0 -i 0 -k MAC
r -t 0.092090280 -s 9 -d -1 -p UNKN -e 37 -c 2 -a 0 -i 0 -k MAC
r -t 0.092101265 -s 8 -d -1 -p UNKN -e 22 -c 2 -a 0 -i 0 -k MAC
r -t 0.092145710 -s 8 -d -1 -p UNKN -e 37 -c 2 -a 0 -i 0 -k MAC
r -t 0.096045805 -s 6 -d -1 -p UNKN -e 22 -c 2 -a 0 -i 0 -k MAC
r -t 0.096045835 -s 9 -d -1 -p UNKN -e 22 -c 2 -a 0 -i 0 -k MAC
r -t 0.096090250 -s 6 -d -1 -p UNKN -e 37 -c 2 -a 0 -i 0 -k MAC
r -t 0.096090280 -s 9 -d -1 -p UNKN -e 37 -c 2 -a 0 -i 0 -k MAC
r -t 0.096101265 -s 8 -d -1 -p UNKN -e 22 -c 2 -a 0 -i 0 -k MAC
r -t 0.096145710 -s 8 -d -1 -p UNKN -e 37 -c 2 -a 0 -i 0 -k MAC
r -t 0.100045805 -s 6 -d -1 -p UNKN -e 22 -c 2 -a 0 -i 0 -k MAC
r -t 0.100045835 -s 9 -d -1 -p UNKN -e 22 -c 2 -a 0 -i 0 -k MAC
r -t 0.100090250 -s 6 -d -1 -p UNKN -e 37 -c 2 -a 0 -i 0 -k MAC
r -t 0.100090280 -s 9 -d -1 -p UNKN -e 37 -c 2 -a 0 -i 0 -k MAC
r -t 0.100101265 -s 8 -d -1 -p UNKN -e 22 -c 2 -a 0 -i 0 -k MAC
r -t 0.100145710 -s 8 -d -1 -p UNKN -e 37 -c 2 -a 0 -i 0 -k MAC
r -t 0.104045805 -s 6 -d -1 -p UNKN -e 22 -c 2 -a 0 -i 0 -k MAC
r -t 0.104045835 -s 9 -d -1 -p UNKN -e 22 -c 2 -a 0 -i 0 -k MAC
r -t 0.104090250 -s 6 -d -1 -p UNKN -e 37 -c 2 -a 0 -i 0 -k MAC
r -t 0.104090280 -s 9 -d -1 -p UNKN -e 37 -c 2 -a 0 -i 0 -k MAC
r -t 0.104101265 -s 8 -d -1 -p UNKN -e 22 -c 2 -a 0 -i 0 -k MAC
r -t 0.104145710 -s 8 -d -1 -p UNKN -e 37 -c 2 -a 0 -i 0 -k MAC
r -t 0.108045805 -s 6 -d -1 -p UNKN -e 22 -c 2 -a 0 -i 0 -k MAC
r -t 0.108045835 -s 9 -d -1 -p UNKN -e 22 -c 2 -a 0 -i 0 -k MAC
r -t 0.108090250 -s 6 -d -1 -p UNKN -e 37 -c 2 -a 0 -i 0 -k MAC
r -t 0.108090280 -s 9 -d -1 -p UNKN -e 37 -c 2 -a 0 -i 0 -k MAC
r -t 0.108101265 -s 8 -d -1 -p UNKN -e 22 -c 2 -a 0 -i 0 -k MAC
r -t 0.108145710 -s 8 -d -1 -p UNKN -e 37 -c 2 -a 0 -i 0 -k MAC
r -t 0.112045805 -s 6 -d -1 -p UNKN -e 22 -c 2 -a 0 -i 0 -k MAC
r -t 0.112045835 -s 9 -d -1 -p UNKN -e 22 -c 2 -a 0 -i 0 -k MAC
r -t 0.112090250 -s 6 -d -1 -p UNKN -e 37 -c 2 -a 0 -i 0 -k MAC
r -t 0.112090280 -s 9 -d -1 -p UNKN -e 37 -c 2 -a 0 -i 0 -k MAC
r -t 0.112101265 -s 8 -d -1 -p UNKN -e 22 -c 2 -a 0 -i 0 -k MAC
r -t 0.112145710 -s 8 -d -1 -p UNKN -e 37 -c 2 -a 0 -i 0 -k MAC
r -t 0.116045805 -s 6 -d -1 -p UNKN -e 22 -c 2 -a 0 -i 0 -k MAC
r -t 0.116045835 -s 9 -d -1 -p UNKN -e 22 -c 2 -a 0 -i 0 -k MAC
r -t 0.116090250 -s 6 -d -1 -p UNKN -e 37 -c 2 -a 0 -i 0 -k MAC
r -t 0.116090280 -s 9 -d -1 -p UNKN -e 37 -c 2 -a 0 -i 0 -k MAC
r -t 0.116101265 -s 8 -d -1 -p UNKN -e 22 -c 2 -a 0 -i 0 -k MAC
r -t 0.116145710 -s 8 -d -1 -p UNKN -e 37 -c 2 -a 0 -i 0 -k MAC
r -t 0.120045805 -s 6 -d -1 -p UNKN -e 22 -c 2 -a 0 -i 0 -k MAC
r -t 0.120045835 -s 9 -d -1 -p UNKN -e 22 -c 2 -a 0 -i 0 -k MAC
r -t 0.120090250 -s 6 -d -1 -p UNKN -e 37 -c 2 -a 0 -i 0 -k MAC
r -t 0.120090280 -s 9 -d -1 -p UNKN -e 37 -c 2 -a 0 -i 0 -k MAC
r -t 0.120101265 -s 8 -d -1 -p UNKN -e 22 -c 2 -a 0 -i 0 -k MAC
r -t 0.120145710 -s 8 -d -1 -p UNKN -e 37 -c 2 -a 0 -i 0 -k MAC
r -t 0.124045805 -s 6 -d -1 -p UNKN -e 22 -c 2 -a 0 -i 0 -k MAC
r -t 0.124045835 -s 9 -d -1 -p UNKN -e 22 -c 2 -a 0 -i 0 -k MAC
r -t 0.124090250 -s 6 -d -1 -p UNKN -e 37 -c 2 -a 0 -i 0 -k MAC
r -t 0.124090280 -s 9 -d -1 -p UNKN -e 37 -c 2 -a 0 -i 0 -k MAC
r -t 0.124101265 -s 8 -d -1 -p UNKN -e 22 -c 2 -a 0 -i 0 -k MAC
r -t 0.124145710 -s 8 -d -1 -p UNKN -e 37 -c 2 -a 0 -i 0 -k MA