+ 1.055074 0 22 cbr 666 ------- 0 5.0.0.0 3.0.3.0 0 13
- 1.055074 0 22 cbr 666 ------- 0 5.0.0.0 3.0.3.0 0 13
+ 1.055086 0 22 cbr 666 ------- 1 6.0.0.0 3.0.4.0 0 14
- 1.055086 0 22 cbr 666 ------- 1 6.0.0.0 3.0.4.0 0 14
+ 1.055098 0 22 cbr 666 ------- 2 7.0.0.0 3.0.5.0 0 15
- 1.055098 0 22 cbr 666 ------- 2 7.0.0.0 3.0.5.0 0 15
+ 1.055111 0 22 cbr 666 ------- 3 8.0.0.0 3.0.6.0 0 16
- 1.055111 0 22 cbr 666 ------- 3 8.0.0.0 3.0.6.0 0 16
+ 1.055123 0 22 cbr 666 ------- 4 9.0.0.0 3.0.7.0 0 17
- 1.055123 0 22 cbr 666 ------- 4 9.0.0.0 3.0.7.0 0 17
+ 1.055135 0 22 cbr 666 ------- 5 10.0.0.0 3.0.8.0 0 18
- 1.055135 0 22 cbr 666 ------- 5 10.0.0.0 3.0.8.0 0 18
+ 1.055148 0 22 cbr 666 ------- 6 11.0.0.0 3.0.9.0 0 19
- 1.055148 0 22 cbr 666 ------- 6 11.0.0.0 3.0.9.0 0 19
+ 1.05516 0 22 cbr 666 ------- 7 12.0.0.0 3.0.10.0 0 20
- 1.05516 0 22 cbr 666 ------- 7 12.0.0.0 3.0.10.0 0 20
+ 1.055173 0 22 cbr 666 ------- 8 13.0.0.0 3.0.11.0 0 21
- 1.055173 0 22 cbr 666 ------- 8 13.0.0.0 3.0.11.0 0 21
+ 1.055185 0 22 cbr 666 ------- 9 14.0.0.0 3.0.12.0 0 22
- 1.055185 0 22 cbr 666 ------- 9 14.0.0.0 3.0.12.0 0 22
r 1.055482 0 22 cbr 666 ------- 0 5.0.0.0 3.0.3.0 0 13
+ 1.055482 22 23 cbr 666 ------- 0 5.0.0.0 3.0.3.0 0 13
- 1.055482 22 23 cbr 666 ------- 0 5.0.0.0 3.0.3.0 0 13
r 1.055495 0 22 cbr 666 ------- 1 6.0.0.0 3.0.4.0 0 14
+ 1.055495 22 23 cbr 666 ------- 1 6.0.0.0 3.0.4.0 0 14
- 1.055495 22 23 cbr 666 ------- 1 6.0.0.0 3.0.4.0 0 14
r 1.055507 0 22 cbr 666 ------- 2 7.0.0.0 3.0.5.0 0 15
+ 1.055507 22 23 cbr 666 ------- 2 7.0.0.0 3.0.5.0 0 15
- 1.055507 22 23 cbr 666 ------- 2 7.0.0.0 3.0.5.0 0 15
r 1.055519 0 22 cbr 666 ------- 3 8.0.0.0 3.0.6.0 0 16
+ 1.055519 22 23 cbr 666 ------- 3 8.0.0.0 3.0.6.0 0 16
- 1.055519 22 23 cbr 666 ------- 3 8.0.0.0 3.0.6.0 0 16
r 1.055532 0 22 cbr 666 ------- 4 9.0.0.0 3.0.7.0 0 17
+ 1.055532 22 23 cbr 666 ------- 4 9.0.0.0 3.0.7.0 0 17
- 1.055532 22 23 cbr 666 ------- 4 9.0.0.0 3.0.7.0 0 17
r 1.055544 0 22 cbr 666 ------- 5 10.0.0.0 3.0.8.0 0 18
+ 1.055544 22 23 cbr 666 ------- 5 10.0.0.0 3.0.8.0 0 18
- 1.055544 22 23 cbr 666 ------- 5 10.0.0.0 3.0.8.0 0 18
r 1.055556 0 22 cbr 666 ------- 6 11.0.0.0 3.0.9.0 0 19
+ 1.055556 22 23 cbr 666 ------- 6 11.0.0.0 3.0.9.0 0 19
- 1.055556 22 23 cbr 666 ------- 6 11.0.0.0 3.0.9.0 0 19
r 1.055569 0 22 cbr 666 ------- 7 12.0.0.0 3.0.10.0 0 20
+ 1.055569 22 23 cbr 666 ------- 7 12.0.0.0 3.0.10.0 0 20
- 1.055569 22 23 cbr 666 ------- 7 12.0.0.0 3.0.10.0 0 20
r 1.055581 0 22 cbr 666 ------- 8 13.0.0.0 3.0.11.0 0 21
+ 1.055581 22 23 cbr 666 ------- 8 13.0.0.0 3.0.11.0 0 21
- 1.055581 22 23 cbr 666 ------- 8 13.0.0.0 3.0.11.0 0 21
r 1.055593 0 22 cbr 666 ------- 9 14.0.0.0 3.0.12.0 0 22
+ 1.055593 22 23 cbr 666 ------- 9 14.0.0.0 3.0.12.0 0 22
- 1.055593 22 23 cbr 666 ------- 9 14.0.0.0 3.0.12.0 0 22
r 1.065483 22 23 cbr 666 ------- 0 5.0.0.0 3.0.3.0 0 13
+ 1.065483 23 45 cbr 666 ------- 0 5.0.0.0 3.0.3.0 0 13
- 1.065483 23 45 cbr 666 ------- 0 5.0.0.0 3.0.3.0 0 13
r 1.065496 22 23 cbr 666 ------- 1 6.0.0.0 3.0.4.0 0 14
+ 1.065496 23 45 cbr 666 ------- 1 6.0.0.0 3.0.4.0 0 14
r 1.065508 22 23 cbr 666 ------- 2 7.0.0.0 3.0.5.0 0 15
+ 1.065508 23 45 cbr 666 ------- 2 7.0.0.0 3.0.5.0 0 15
r 1.06552 22 23 cbr 666 ------- 3 8.0.0.0 3.0.6.0 0 16
+ 1.06552 23 45 cbr 666 ------- 3 8.0.0.0 3.0.6.0 0 16
r 1.065533 22 23 cbr 666 ------- 4 9.0.0.0 3.0.7.0 0 17
+ 1.065533 23 45 cbr 666 ------- 4 9.0.0.0 3.0.7.0 0 17
r 1.065545 22 23 cbr 666 ------- 5 10.0.0.0 3.0.8.0 0 18
+ 1.065545 23 45 cbr 666 ------- 5 10.0.0.0 3.0.8.0 0 18
- 1.06555 23 45 cbr 666 ------- 1 6.0.0.0 3.0.4.0 0 14
r 1.065557 22 23 cbr 666 ------- 6 11.0.0.0 3.0.9.0 0 19
+ 1.065557 23 45 cbr 666 ------- 6 11.0.0.0 3.0.9.0 0 19
r 1.06557 22 23 cbr 666 ------- 7 12.0.0.0 3.0.10.0 0 20
+ 1.06557 23 45 cbr 666 ------- 7 12.0.0.0 3.0.10.0 0 20
r 1.065582 22 23 cbr 666 ------- 8 13.0.0.0 3.0.11.0 0 21
+ 1.065582 23 45 cbr 666 ------- 8 13.0.0.0 3.0.11.0 0 21
r 1.065595 22 23 cbr 666 ------- 9 14.0.0.0 3.0.12.0 0 22
+ 1.065595 23 45 cbr 666 ------- 9 14.0.0.0 3.0.12.0 0 22
- 1.065617 23 45 cbr 666 ------- 2 7.0.0.0 3.0.5.0 0 15
- 1.065683 23 45 cbr 666 ------- 3 8.0.0.0 3.0.6.0 0 16
- 1.06575 23 45 cbr 666 ------- 4 9.0.0.0 3.0.7.0 0 17
- 1.065816 23 45 cbr 666 ------- 5 10.0.0.0 3.0.8.0 0 18
- 1.065883 23 45 cbr 666 ------- 6 11.0.0.0 3.0.9.0 0 19
- 1.06595 23 45 cbr 666 ------- 7 12.0.0.0 3.0.10.0 0 20
- 1.066016 23 45 cbr 666 ------- 8 13.0.0.0 3.0.11.0 0 21
- 1.066083 23 45 cbr 666 ------- 9 14.0.0.0 3.0.12.0 0 22
+ 1.07507 0 22 cbr 666 ------- 0 5.0.0.0 3.0.3.0 1 31
- 1.07507 0 22 cbr 666 ------- 0 5.0.0.0 3.0.3.0 1 31
+ 1.075082 0 22 cbr 666 ------- 1 6.0.0.0 3.0.4.0 1 32
- 1.075082 0 22 cbr 666 ------- 1 6.0.0.0 3.0.4.0 1 32
+ 1.075095 0 22 cbr 666 ------- 2 7.0.0.0 3.0.5.0 1 33
- 1.075095 0 22 cbr 666 ------- 2 7.0.0.0 3.0.5.0 1 33
+ 1.075107 0 22 cbr 666 ------- 3 8.0.0.0 3.0.6.0 1 34
- 1.075107 0 22 cbr 666 ------- 3 8.0.0.0 3.0.6.0 1 34
+ 1.07512 0 22 cbr 666 ------- 4 9.0.0.0 3.0.7.0 1 35
- 1.07512 0 22 cbr 666 ------- 4 9.0.0.0 3.0.7.0 1 35
+ 1.075132 0 22 cbr 666 ------- 5 10.0.0.0 3.0.8.0 1 36
- 1.075132 0 22 cbr 666 ------- 5 10.0.0.0 3.0.8.0 1 36
+ 1.075144 0 22 cbr 666 ------- 6 11.0.0.0 3.0.9.0 1 37
- 1.075144 0 22 cbr 666 ------- 6 11.0.0.0 3.0.9.0 1 37
+ 1.075157 0 22 cbr 666 ------- 7 12.0.0.0 3.0.10.0 1 38
- 1.075157 0 22 cbr 666 ------- 7 12.0.0.0 3.0.10.0 1 38
+ 1.075169 0 22 cbr 666 ------- 8 13.0.0.0 3.0.11.0 1 39
- 1.075169 0 22 cbr 666 ------- 8 13.0.0.0 3.0.11.0 1 39
+ 1.075181 0 22 cbr 666 ------- 9 14.0.0.0 3.0.12.0 1 40
- 1.075181 0 22 cbr 666 ------- 9 14.0.0.0 3.0.12.0 1 40
r 1.075479 0 22 cbr 666 ------- 0 5.0.0.0 3.0.3.0 1 31
+ 1.075479 22 23 cbr 666 ------- 0 5.0.0.0 3.0.3.0 1 31
- 1.075479 22 23 cbr 666 ------- 0 5.0.0.0 3.0.3.0 1 31
r 1.075491 0 22 cbr 666 ------- 1 6.0.0.0 3.0.4.0 1 32
+ 1.075491 22 23 cbr 666 ------- 1 6.0.0.0 3.0.4.0 1 32
- 1.075491 22 23 cbr 666 ------- 1 6.0.0.0 3.0.4.0 1 32
r 1.075503 0 22 cbr 666 ------- 2 7.0.0.0 3.0.5.0 1 33
+ 1.075503 22 23 cbr 666 ------- 2 7.0.0.0 3.0.5.0 1 33
- 1.075503 22 23 cbr 666 ------- 2 7.0.0.0 3.0.5.0 1 33
r 1.075516 0 22 cbr 666 ------- 3 8.0.0.0 3.0.6.0 1 34
+ 1.075516 22 23 cbr 666 ------- 3 8.0.0.0 3.0.6.0 1 34
- 1.075516 22 23 cbr 666 ------- 3 8.0.0.0 3.0.6.0 1 34
r 1.075528 0 22 cbr 666 ------- 4 9.0.0.0 3.0.7.0 1 35
+ 1.075528 22 23 cbr 666 ------- 4 9.0.0.0 3.0.7.0 1 35
- 1.075528 22 23 cbr 666 ------- 4 9.0.0.0 3.0.7.0 1 35
r 1.07554 0 22 cbr 666 ------- 5 10.0.0.0 3.0.8.0 1 36
+ 1.07554 22 23 cbr 666 ------- 5 10.0.0.0 3.0.8.0 1 36
- 1.07554 22 23 cbr 666 ------- 5 10.0.0.0 3.0.8.0 1 36
r 1.075553 0 22 cbr 666 ------- 6 11.0.0.0 3.0.9.0 1 37
+ 1.075553 22 23 cbr 666 ------- 6 11.0.0.0 3.0.9.0 1 37
- 1.075553 22 23 cbr 666 ------- 6 11.0.0.0 3.0.9.0 1 37
r 1.075565 0 22 cbr 666 ------- 7 12.0.0.0 3.0.10.0 1 38
+ 1.075565 22 23 cbr 666 ------- 7 12.0.0.0 3.0.10.0 1 38
- 1.075565 22 23 cbr 666 ------- 7 12.0.0.0 3.0.10.0 1 38
r 1.075577 0 22 cbr 666 ------- 8 13.0.0.0 3.0.11.0 1 39
+ 1.075577 22 23 cbr 666 ------- 8 13.0.0.0 3.0.11.0 1 39
- 1.075577 22 23 cbr 666 ------- 8 13.0.0.0 3.0.11.0 1 39
r 1.07559 0 22 cbr 666 ------- 9 14.0.0.0 3.0.12.0 1 40
+ 1.07559 22 23 cbr 666 ------- 9 14.0.0.0 3.0.12.0 1 40
- 1.07559 22 23 cbr 666 ------- 9 14.0.0.0 3.0.12.0 1 40
r 1.08055 23 45 cbr 666 ------- 0 5.0.0.0 3.0.3.0 0 13
r 1.080617 23 45 cbr 666 ------- 1 6.0.0.0 3.0.4.0 0 14
r 1.080683 23 45 cbr 666 ------- 2 7.0.0.0 3.0.5.0 0 15
r 1.08075 23 45 cbr 666 ------- 3 8.0.0.0 3.0.6.0 0 16
r 1.080816 23 45 cbr 666 ------- 4 9.0.0.0 3.0.7.0 0 17
r 1.080883 23 45 cbr 666 ------- 5 10.0.0.0 3.0.8.0 0 18
r 1.08095 23 45 cbr 666 ------- 6 11.0.0.0 3.0.9.0 0 19
r 1.081016 23 45 cbr 666 ------- 7 12.0.0.0 3.0.10.0 0 20
r 1.081083 23 45 cbr 666 ------- 8 13.0.0.0 3.0.11.0 0 21
r 1.081149 23 45 cbr 666 ------- 9 14.0.0.0 3.0.12.0 0 22
r 1.08548 22 23 cbr 666 ------- 0 5.0.0.0 3.0.3.0 1 31
+ 1.08548 23 45 cbr 666 ------- 0 5.0.0.0 3.0.3.0 1 31
- 1.08548 23 45 cbr 666 ------- 0 5.0.0.0 3.0.3.0 1 31
r 1.085492 22 23 cbr 666 ------- 1 6.0.0.0 3.0.4.0 1 32
+ 1.085492 23 45 cbr 666 ------- 1 6.0.0.0 3.0.4.0 1 32
r 1.085504 22 23 cbr 666 ------- 2 7.0.0.0 3.0.5.0 1 33
+ 1.085504 23 45 cbr 666 ------- 2 7.0.0.0 3.0.5.0 1 33
r 1.085517 22 23 cbr 666 ------- 3 8.0.0.0 3.0.6.0 1 34
+ 1.085517 23 45 cbr 666 ------- 3 8.0.0.0 3.0.6.0 1 34
r 1.085529 22 23 cbr 666 ------- 4 9.0.0.0 3.0.7.0 1 35
+ 1.085529 23 45 cbr 666 ------- 4 9.0.0.0 3.0.7.0 1 35
r 1.085542 22 23 cbr 666 ------- 5 10.0.0.0 3.0.8.0 1 36
+ 1.085542 23 45 cbr 666 ------- 5 10.0.0.0 3.0.8.0 1 36
- 1.085546 23 45 cbr 666 ------- 1 6.0.0.0 3.0.4.0 1 32
r 1.085554 22 23 cbr 666 ------- 6 11.0.0.0 3.0.9.0 1 37
+ 1.085554 23 45 cbr 666 ------- 6 11.0.0.0 3.0.9.0 1 37
r 1.085566 22 23 cbr 666 ------- 7 12.0.0.0 3.0.10.0 1 38
+ 1.085566 23 45 cbr 666 ------- 7 12.0.0.0 3.0.10.0 1 38
r 1.085579 22 23 cbr 666 ------- 8 13.0.0.0 3.0.11.0 1 39
+ 1.085579 23 45 cbr 666 ------- 8 13.0.0.0 3.0.11.0 1 39
r 1.085591 22 23 cbr 666 ------- 9 14.0.0.0 3.0.12.0 1 40
+ 1.085591 23 45 cbr 666 ------- 9 14.0.0.0 3.0.12.0 1 40
- 1.085613 23 45 cbr 666 ------- 2 7.0.0.0 3.0.5.0 1 33
- 1.08568 23 45 cbr 666 ------- 3 8.0.0.0 3.0.6.0 1 34
- 1.085746 23 45 cbr 666 ------- 4 9.0.0.0 3.0.7.0 1 35
- 1.085813 23 45 cbr 666 ------- 5 10.0.0.0 3.0.8.0 1 36
- 1.085879 23 45 cbr 666 ------- 6 11.0.0.0 3.0.9.0 1 37
- 1.085946 23 45 cbr 666 ------- 7 12.0.0.0 3.0.10.0 1 38
- 1.086013 23 45 cbr 666 ------- 8 13.0.0.0 3.0.11.0 1 39
- 1.086079 23 45 cbr 666 ------- 9 14.0.0.0 3.0.12.0 1 40
+ 1.095067 0 22 cbr 666 ------- 0 5.0.0.0 3.0.3.0 2 49
- 1.095067 0 22 cbr 666 ------- 0 5.0.0.0 3.0.3.0 2 49
+ 1.095075 0 22 cbr 666 ------- 0 5.0.0.0 3.0.3.0 3 67
- 1.095075 0 22 cbr 666 ------- 0 5.0.0.0 3.0.3.0 3 67
+ 1.095079 0 22 cbr 666 ------- 1 6.0.0.0 3.0.4.0 2 50
- 1.095084 0 22 cbr 666 ------- 1 6.0.0.0 3.0.4.0 2 50
+ 1.095087 0 22 cbr 666 ------- 1 6.0.0.0 3.0.4.0 3 68
+ 1.095091 0 22 cbr 666 ------- 2 7.0.0.0 3.0.5.0 2 51
- 1.095092 0 22 cbr 666 ------- 1 6.0.0.0 3.0.4.0 3 68
+ 1.095099 0 22 cbr 666 ------- 2 7.0.0.0 3.0.5.0 3 69
- 1.095101 0 22 cbr 666 ------- 2 7.0.0.0 3.0.5.0 2 51
+ 1.095104 0 22 cbr 666 ------- 3 8.0.0.0 3.0.6.0 2 52
- 1.095109 0 22 cbr 666 ------- 2 7.0.0.0 3.0.5.0 3 69
+ 1.095112 0 22 cbr 666 ------- 3 8.0.0.0 3.0.6.0 3 70
+ 1.095116 0 22 cbr 666 ------- 4 9.0.0.0 3.0.7.0 2 53
- 1.095118 0 22 cbr 666 ------- 3 8.0.0.0 3.0.6.0 2 52
+ 1.095124 0 22 cbr 666 ------- 4 9.0.0.0 3.0.7.0 3 71
- 1.095127 0 22 cbr 666 ------- 3 8.0.0.0 3.0.6.0 3 70
+ 1.095128 0 22 cbr 666 ------- 5 10.0.0.0 3.0.8.0 2 54
- 1.095135 0 22 cbr 666 ------- 4 9.0.0.0 3.0.7.0 2 53
+ 1.095137 0 22 cbr 666 ------- 5 10.0.0.0 3.0.8.0 3 72
+ 1.095141 0 22 cbr 666 ------- 6 11.0.0.0 3.0.9.0 2 55
- 1.095144 0 22 cbr 666 ------- 4 9.0.0.0 3.0.7.0 3 71
+ 1.095149 0 22 cbr 666 ------- 6 11.0.0.0 3.0.9.0 3 73
- 1.095152 0 22 cbr 666 ------- 5 10.0.0.0 3.0.8.0 2 54
+ 1.095153 0 22 cbr 666 ------- 7 12.0.0.0 3.0.10.0 2 56
- 1.095161 0 22 cbr 666 ------- 5 10.0.0.0 3.0.8.0 3 72
+ 1.095161 0 22 cbr 666 ------- 7 12.0.0.0 3.0.10.0 3 74
+ 1.095165 0 22 cbr 666 ------- 8 13.0.0.0 3.0.11.0 2 57
- 1.095169 0 22 cbr 666 ------- 6 11.0.0.0 3.0.9.0 2 55
+ 1.095174 0 22 cbr 666 ------- 8 13.0.0.0 3.0.11.0 3 75
+ 1.095178 0 22 cbr 666 ------- 9 14.0.0.0 3.0.12.0 2 58
- 1.095178 0 22 cbr 666 ------- 6 11.0.0.0 3.0.9.0 3 73
+ 1.095186 0 22 cbr 666 ------- 9 14.0.0.0 3.0.12.0 3 76
- 1.095186 0 22 cbr 666 ------- 7 12.0.0.0 3.0.10.0 2 56
- 1.095195 0 22 cbr 666 ------- 7 12.0.0.0 3.0.10.0 3 74
- 1.095204 0 22 cbr 666 ------- 8 13.0.0.0 3.0.11.0 2 57
- 1.095212 0 22 cbr 666 ------- 8 13.0.0.0 3.0.11.0 3 75
- 1.095221 0 22 cbr 666 ------- 9 14.0.0.0 3.0.12.0 2 58
- 1.095229 0 22 cbr 666 ------- 9 14.0.0.0 3.0.12.0 3 76
r 1.095475 0 22 cbr 666 ------- 0 5.0.0.0 3.0.3.0 2 49
+ 1.095475 22 23 cbr 666 ------- 0 5.0.0.0 3.0.3.0 2 49
- 1.095475 22 23 cbr 666 ------- 0 5.0.0.0 3.0.3.0 2 49
r 1.095484 0 22 cbr 666 ------- 0 5.0.0.0 3.0.3.0 3 67
+ 1.095484 22 23 cbr 666 ------- 0 5.0.0.0 3.0.3.0 3 67
- 1.095484 22 23 cbr 666 ------- 0 5.0.0.0 3.0.3.0 3 67
r 1.095492 0 22 cbr 666 ------- 1 6.0.0.0 3.0.4.0 2 50
+ 1.095492 22 23 cbr 666 ------- 1 6.0.0.0 3.0.4.0 2 50
- 1.095492 22 23 cbr 666 ------- 1 6.0.0.0 3.0.4.0 2 50
r 1.095501 0 22 cbr 666 ------- 1 6.0.0.0 3.0.4.0 3 68
+ 1.095501 22 23 cbr 666 ------- 1 6.0.0.0 3.0.4.0 3 68
- 1.095501 22 23 cbr 666 ------- 1 6.0.0.0 3.0.4.0 3 68
r 1.095509 0 22 cbr 666 ------- 2 7.0.0.0 3.0.5.0 2 51
+ 1.095509 22 23 cbr 666 ------- 2 7.0.0.0 3.0.5.0 2 51
- 1.095509 22 23 cbr 666 ------- 2 7.0.0.0 3.0.5.0 2 51
r 1.095518 0 22 cbr 666 ------- 2 7.0.0.0 3.0.5.0 3 69
+ 1.095518 22 23 cbr 666 ------- 2 7.0.0.0 3.0.5.0 3 69
- 1.095518 22 23 cbr 666 ------- 2 7.0.0.0 3.0.5.0 3 69
r 1.095527 0 22 cbr 666 ------- 3 8.0.0.0 3.0.6.0 2 52
+ 1.095527 22 23 cbr 666 ------- 3 8.0.0.0 3.0.6.0 2 52
- 1.095527 22 23 cbr 666 ------- 3 8.0.0.0 3.0.6.0 2 52
r 1.095535 0 22 cbr 666 ------- 3 8.0.0.0 3.0.6.0 3 70
+ 1.095535 22 23 cbr 666 ------- 3 8.0.0.0 3.0.6.0 3 70
- 1.095535 22 23 cbr 666 ------- 3 8.0.0.0 3.0.6.0 3 70
r 1.095544 0 22 cbr 666 ------- 4 9.0.0.0 3.0.7.0 2 53
+ 1.095544 22 23 cbr 666 ------- 4 9.0.0.0 3.0.7.0 2 53
- 1.095544 22 23 cbr 666 ------- 4 9.0.0.0 3.0.7.0 2 53
r 1.095552 0 22 cbr 666 ------- 4 9.0.0.0 3.0.7.0 3 71
+ 1.095552 22 23 cbr 666 ------- 4 9.0.0.0 3.0.7.0 3 71
- 1.095552 22 23 cbr 666 ------- 4 9.0.0.0 3.0.7.0 3 71
r 1.095561 0 22 cbr 666 ------- 5 10.0.0.0 3.0.8.0 2 54
+ 1.095561 22 23 cbr 666 ------- 5 10.0.0.0 3.0.8.0 2 54
- 1.095561 22 23 cbr 666 ------- 5 10.0.0.0 3.0.8.0 2 54
r 1.095569 0 22 cbr 666 ------- 5 10.0.0.0 3.0.8.0 3 72
+ 1.095569 22 23 cbr 666 ------- 5 10.0.0.0 3.0.8.0 3 72
- 1.095569 22 23 cbr 666 ------- 5 10.0.0.0 3.0.8.0 3 72
r 1.095578 0 22 cbr 666 ------- 6 11.0.0.0 3.0.9.0 2 55
+ 1.095578 22 23 cbr 666 ------- 6 11.0.0.0 3.0.9.0 2 55
- 1.095578 22 23 cbr 666 ------- 6 11.0.0.0 3.0.9.0 2 55
r 1.095586 0 22 cbr 666 ------- 6 11.0.0.0 3.0.9.0 3 73
+ 1.095586 22 23 cbr 666 ------- 6 11.0.0.0 3.0.9.0 3 73
- 1.095586 22 23 cbr 666 ------- 6 11.0.0.0 3.0.9.0 3 73
r 1.095595 0 22 cbr 666 ------- 7 12.0.0.0 3.0.10.0 2 56
+ 1.095595 22 23 cbr 666 ------- 7 12.0.0.0 3.0.10.0 2 56
- 1.095595 22 23 cbr 666 ------- 7 12.0.0.0 3.0.10.0 2 56
r 1.095604 0 22 cbr 666 ------- 7 12.0.0.0 3.0.10.0 3 74
+ 1.095604 22 23 cbr 666 ------- 7 12.0.0.0 3.0.10.0 3 74
- 1.095604 22 23 cbr 666 ------- 7 12.0.0.0 3.0.10.0 3 74
r 1.095612 0 22 cbr 666 ------- 8 13.0.0.0 3.0.11.0 2 57
+ 1.095612 22 23 cbr 666 ------- 8 13.0.0.0 3.0.11.0 2 57
- 1.095612 22 23 cbr 666 ------- 8 13.0.0.0 3.0.11.0 2 57
r 1.095621 0 22 cbr 666 ------- 8 13.0.0.0 3.0.11.0 3 75
+ 1.095621 22 23 cbr 666 ------- 8 13.0.0.0 3.0.11.0 3 75
- 1.095621 22 23 cbr 666 ------- 8 13.0.0.0 3.0.11.0 3 75
r 1.095629 0 22 cbr 666 ------- 9 14.0.0.0 3.0.12.0 2 58
+ 1.095629 22 23 cbr 666 ------- 9 14.0.0.0 3.0.12.0 2 58
- 1.095629 22 23 cbr 666 ------- 9 14.0.0.0 3.0.12.0 2 58
r 1.095638 0 22 cbr 666 ------- 9 14.0.0.0 3.0.12.0 3 76
+ 1.095638 22 23 cbr 666 ------- 9 14.0.0.0 3.0.12.0 3 76
- 1.095638 22 23 cbr 666 ------- 9 14.0.0.0 3.0.12.0 3 76
r 1.100546 23 45 cbr 666 ------- 0 5.0.0.0 3.0.3.0 1 31
D 1.100546381 _45_ IFQ  ARP 13 cbr 666 [0 0 2a 800] ------- [20971520:0 12582915:0 27 12582915] [0] 0 0
r 1.100613 23 45 cbr 666 ------- 1 6.0.0.0 3.0.4.0 1 32
D 1.100612981 _45_ IFQ  ARP 14 cbr 666 [0 0 2a 800] ------- [25165824:0 12582916:0 27 12582916] [0] 0 0
r 1.10068 23 45 cbr 666 ------- 2 7.0.0.0 3.0.5.0 1 33
D 1.100679581 _45_ IFQ  ARP 15 cbr 666 [0 0 2a 800] ------- [29360128:0 12582917:0 27 12582917] [0] 0 0
r 1.100746 23 45 cbr 666 ------- 3 8.0.0.0 3.0.6.0 1 34
D 1.100746181 _45_ IFQ  ARP 16 cbr 666 [0 0 2a 800] ------- [33554432:0 12582918:0 27 12582918] [0] 0 0
r 1.100813 23 45 cbr 666 ------- 4 9.0.0.0 3.0.7.0 1 35
D 1.100812781 _45_ IFQ  ARP 17 cbr 666 [0 0 2a 800] ------- [37748736:0 12582919:0 27 12582919] [0] 0 0
r 1.100879 23 45 cbr 666 ------- 5 10.0.0.0 3.0.8.0 1 36
D 1.100879381 _45_ IFQ  ARP 18 cbr 666 [0 0 2a 800] ------- [41943040:0 12582920:0 27 12582920] [0] 0 0
r 1.100946 23 45 cbr 666 ------- 6 11.0.0.0 3.0.9.0 1 37
D 1.100945981 _45_ IFQ  ARP 19 cbr 666 [0 0 2a 800] ------- [46137344:0 12582921:0 27 12582921] [0] 0 0
r 1.101013 23 45 cbr 666 ------- 7 12.0.0.0 3.0.10.0 1 38
D 1.101012581 _45_ IFQ  ARP 20 cbr 666 [0 0 2a 800] ------- [50331648:0 12582922:0 27 12582922] [0] 0 0
r 1.101079 23 45 cbr 666 ------- 8 13.0.0.0 3.0.11.0 1 39
D 1.101079181 _45_ IFQ  ARP 21 cbr 666 [0 0 2a 800] ------- [54525952:0 12582923:0 27 12582923] [0] 0 0
r 1.101146 23 45 cbr 666 ------- 9 14.0.0.0 3.0.12.0 1 40
D 1.101145781 _45_ IFQ  ARP 22 cbr 666 [0 0 2a 800] ------- [58720256:0 12582924:0 27 12582924] [0] 0 0
r 1.105476 22 23 cbr 666 ------- 0 5.0.0.0 3.0.3.0 2 49
+ 1.105476 23 45 cbr 666 ------- 0 5.0.0.0 3.0.3.0 2 49
- 1.105476 23 45 cbr 666 ------- 0 5.0.0.0 3.0.3.0 2 49
r 1.105485 22 23 cbr 666 ------- 0 5.0.0.0 3.0.3.0 3 67
+ 1.105485 23 45 cbr 666 ------- 0 5.0.0.0 3.0.3.0 3 67
r 1.105493 22 23 cbr 666 ------- 1 6.0.0.0 3.0.4.0 2 50
+ 1.105493 23 45 cbr 666 ------- 1 6.0.0.0 3.0.4.0 2 50
r 1.105502 22 23 cbr 666 ------- 1 6.0.0.0 3.0.4.0 3 68
+ 1.105502 23 45 cbr 666 ------- 1 6.0.0.0 3.0.4.0 3 68
r 1.10551 22 23 cbr 666 ------- 2 7.0.0.0 3.0.5.0 2 51
+ 1.10551 23 45 cbr 666 ------- 2 7.0.0.0 3.0.5.0 2 51
r 1.105519 22 23 cbr 666 ------- 2 7.0.0.0 3.0.5.0 3 69
+ 1.105519 23 45 cbr 666 ------- 2 7.0.0.0 3.0.5.0 3 69
r 1.105528 22 23 cbr 666 ------- 3 8.0.0.0 3.0.6.0 2 52
+ 1.105528 23 45 cbr 666 ------- 3 8.0.0.0 3.0.6.0 2 52
r 1.105536 22 23 cbr 666 ------- 3 8.0.0.0 3.0.6.0 3 70
+ 1.105536 23 45 cbr 666 ------- 3 8.0.0.0 3.0.6.0 3 70
- 1.105543 23 45 cbr 666 ------- 0 5.0.0.0 3.0.3.0 3 67
r 1.105545 22 23 cbr 666 ------- 4 9.0.0.0 3.0.7.0 2 53
+ 1.105545 23 45 cbr 666 ------- 4 9.0.0.0 3.0.7.0 2 53
r 1.105553 22 23 cbr 666 ------- 4 9.0.0.0 3.0.7.0 3 71
+ 1.105553 23 45 cbr 666 ------- 4 9.0.0.0 3.0.7.0 3 71
r 1.105562 22 23 cbr 666 ------- 5 10.0.0.0 3.0.8.0 2 54
+ 1.105562 23 45 cbr 666 ------- 5 10.0.0.0 3.0.8.0 2 54
r 1.10557 22 23 cbr 666 ------- 5 10.0.0.0 3.0.8.0 3 72
+ 1.10557 23 45 cbr 666 ------- 5 10.0.0.0 3.0.8.0 3 72
r 1.105579 22 23 cbr 666 ------- 6 11.0.0.0 3.0.9.0 2 55
+ 1.105579 23 45 cbr 666 ------- 6 11.0.0.0 3.0.9.0 2 55
r 1.105588 22 23 cbr 666 ------- 6 11.0.0.0 3.0.9.0 3 73
+ 1.105588 23 45 cbr 666 ------- 6 11.0.0.0 3.0.9.0 3 73
r 1.105596 22 23 cbr 666 ------- 7 12.0.0.0 3.0.10.0 2 56
+ 1.105596 23 45 cbr 666 ------- 7 12.0.0.0 3.0.10.0 2 56
r 1.105605 22 23 cbr 666 ------- 7 12.0.0.0 3.0.10.0 3 74
+ 1.105605 23 45 cbr 666 ------- 7 12.0.0.0 3.0.10.0 3 74
- 1.105609 23 45 cbr 666 ------- 1 6.0.0.0 3.0.4.0 2 50
r 1.105613 22 23 cbr 666 ------- 8 13.0.0.0 3.0.11.0 2 57
+ 1.105613 23 45 cbr 666 ------- 8 13.0.0.0 3.0.11.0 2 57
r 1.105622 22 23 cbr 666 ------- 8 13.0.0.0 3.0.11.0 3 75
+ 1.105622 23 45 cbr 666 ------- 8 13.0.0.0 3.0.11.0 3 75
r 1.10563 22 23 cbr 666 ------- 9 14.0.0.0 3.0.12.0 2 58
+ 1.10563 23 45 cbr 666 ------- 9 14.0.0.0 3.0.12.0 2 58
r 1.105639 22 23 cbr 666 ------- 9 14.0.0.0 3.0.12.0 3 76
+ 1.105639 23 45 cbr 666 ------- 9 14.0.0.0 3.0.12.0 3 76
- 1.105676 23 45 cbr 666 ------- 1 6.0.0.0 3.0.4.0 3 68
- 1.105743 23 45 cbr 666 ------- 2 7.0.0.0 3.0.5.0 2 51
- 1.105809 23 45 cbr 666 ------- 2 7.0.0.0 3.0.5.0 3 69
- 1.105876 23 45 cbr 666 ------- 3 8.0.0.0 3.0.6.0 2 52
- 1.105942 23 45 cbr 666 ------- 3 8.0.0.0 3.0.6.0 3 70
- 1.106009 23 45 cbr 666 ------- 4 9.0.0.0 3.0.7.0 2 53
- 1.106076 23 45 cbr 666 ------- 4 9.0.0.0 3.0.7.0 3 71
- 1.106142 23 45 cbr 666 ------- 5 10.0.0.0 3.0.8.0 2 54
- 1.106209 23 45 cbr 666 ------- 5 10.0.0.0 3.0.8.0 3 72
- 1.106275 23 45 cbr 666 ------- 6 11.0.0.0 3.0.9.0 2 55
- 1.106342 23 45 cbr 666 ------- 6 11.0.0.0 3.0.9.0 3 73
- 1.106409 23 45 cbr 666 ------- 7 12.0.0.0 3.0.10.0 2 56
- 1.106475 23 45 cbr 666 ------- 7 12.0.0.0 3.0.10.0 3 74
- 1.106542 23 45 cbr 666 ------- 8 13.0.0.0 3.0.11.0 2 57
- 1.106608 23 45 cbr 666 ------- 8 13.0.0.0 3.0.11.0 3 75
- 1.106675 23 45 cbr 666 ------- 9 14.0.0.0 3.0.12.0 2 58
- 1.106742 23 45 cbr 666 ------- 9 14.0.0.0 3.0.12.0 3 76
+ 1.115071 0 22 cbr 666 ------- 0 5.0.0.0 3.0.3.0 4 85
- 1.115071 0 22 cbr 666 ------- 0 5.0.0.0 3.0.3.0 4 85
+ 1.115084 0 22 cbr 666 ------- 1 6.0.0.0 3.0.4.0 4 86
- 1.115084 0 22 cbr 666 ------- 1 6.0.0.0 3.0.4.0 4 86
+ 1.115096 0 22 cbr 666 ------- 2 7.0.0.0 3.0.5.0 4 87
- 1.115096 0 22 cbr 666 ------- 2 7.0.0.0 3.0.5.0 4 87
+ 1.115108 0 22 cbr 666 ------- 3 8.0.0.0 3.0.6.0 4 88
- 1.115108 0 22 cbr 666 ------- 3 8.0.0.0 3.0.6.0 4 88
+ 1.115121 0 22 cbr 666 ------- 4 9.0.0.0 3.0.7.0 4 89
- 1.115121 0 22 cbr 666 ------- 4 9.0.0.0 3.0.7.0 4 89
+ 1.115133 0 22 cbr 666 ------- 5 10.0.0.0 3.0.8.0 4 90
- 1.115133 0 22 cbr 666 ------- 5 10.0.0.0 3.0.8.0 4 90
+ 1.115145 0 22 cbr 666 ------- 6 11.0.0.0 3.0.9.0 4 91
- 1.115145 0 22 cbr 666 ------- 6 11.0.0.0 3.0.9.0 4 91
+ 1.115158 0 22 cbr 666 ------- 7 12.0.0.0 3.0.10.0 4 92
- 1.115158 0 22 cbr 666 ------- 7 12.0.0.0 3.0.10.0 4 92
+ 1.11517 0 22 cbr 666 ------- 8 13.0.0.0 3.0.11.0 4 93
- 1.11517 0 22 cbr 666 ------- 8 13.0.0.0 3.0.11.0 4 93
+ 1.115182 0 22 cbr 666 ------- 9 14.0.0.0 3.0.12.0 4 94
- 1.115182 0 22 cbr 666 ------- 9 14.0.0.0 3.0.12.0 4 94
r 1.11548 0 22 cbr 666 ------- 0 5.0.0.0 3.0.3.0 4 85
+ 1.11548 22 23 cbr 666 ------- 0 5.0.0.0 3.0.3.0 4 85
- 1.11548 22 23 cbr 666 ------- 0 5.0.0.0 3.0.3.0 4 85
r 1.115492 0 22 cbr 666 ------- 1 6.0.0.0 3.0.4.0 4 86
+ 1.115492 22 23 cbr 666 ------- 1 6.0.0.0 3.0.4.0 4 86
- 1.115492 22 23 cbr 666 ------- 1 6.0.0.0 3.0.4.0 4 86
r 1.115504 0 22 cbr 666 ------- 2 7.0.0.0 3.0.5.0 4 87
+ 1.115504 22 23 cbr 666 ------- 2 7.0.0.0 3.0.5.0 4 87
- 1.115504 22 23 cbr 666 ------- 2 7.0.0.0 3.0.5.0 4 87
r 1.115517 0 22 cbr 666 ------- 3 8.0.0.0 3.0.6.0 4 88
+ 1.115517 22 23 cbr 666 ------- 3 8.0.0.0 3.0.6.0 4 88
- 1.115517 22 23 cbr 666 ------- 3 8.0.0.0 3.0.6.0 4 88
r 1.115529 0 22 cbr 666 ------- 4 9.0.0.0 3.0.7.0 4 89
+ 1.115529 22 23 cbr 666 ------- 4 9.0.0.0 3.0.7.0 4 89
- 1.115529 22 23 cbr 666 ------- 4 9.0.0.0 3.0.7.0 4 89
r 1.115541 0 22 cbr 666 ------- 5 10.0.0.0 3.0.8.0 4 90
+ 1.115541 22 23 cbr 666 ------- 5 10.0.0.0 3.0.8.0 4 90
- 1.115541 22 23 cbr 666 ------- 5 10.0.0.0 3.0.8.0 4 90
r 1.115554 0 22 cbr 666 ------- 6 11.0.0.0 3.0.9.0 4 91
+ 1.115554 22 23 cbr 666 ------- 6 11.0.0.0 3.0.9.0 4 91
- 1.115554 22 23 cbr 666 ------- 6 11.0.0.0 3.0.9.0 4 91
r 1.115566 0 22 cbr 666 ------- 7 12.0.0.0 3.0.10.0 4 92
+ 1.115566 22 23 cbr 666 ------- 7 12.0.0.0 3.0.10.0 4 92
- 1.115566 22 23 cbr 666 ------- 7 12.0.0.0 3.0.10.0 4 92
r 1.115579 0 22 cbr 666 ------- 8 13.0.0.0 3.0.11.0 4 93
+ 1.115579 22 23 cbr 666 ------- 8 13.0.0.0 3.0.11.0 4 93
- 1.115579 22 23 cbr 666 ------- 8 13.0.0.0 3.0.11.0 4 93
r 1.115591 0 22 cbr 666 ------- 9 14.0.0.0 3.0.12.0 4 94
+ 1.115591 22 23 cbr 666 ------- 9 14.0.0.0 3.0.12.0 4 94
- 1.115591 22 23 cbr 666 ------- 9 14.0.0.0 3.0.12.0 4 94
r 1.120543 23 45 cbr 666 ------- 0 5.0.0.0 3.0.3.0 2 49
D 1.120542780 _45_ IFQ  ARP 31 cbr 666 [0 0 2a 800] ------- [20971520:0 12582915:0 27 12582915] [1] 0 0
r 1.120609 23 45 cbr 666 ------- 0 5.0.0.0 3.0.3.0 3 67
D 1.120609380 _45_ RTR  CBK 49 cbr 666 [0 0 2a 800] ------- [20971520:0 12582915:0 27 12582915] [2] 0 0
D 1.120609380 _45_ RTR  CBK 67 cbr 666 [0 0 2a 800] ------- [20971520:0 12582915:0 27 12582915] [3] 0 0
r 1.120676 23 45 cbr 666 ------- 1 6.0.0.0 3.0.4.0 2 50
D 1.120675980 _45_ IFQ  ARP 32 cbr 666 [0 0 2a 800] ------- [25165824:0 12582916:0 27 12582916] [1] 0 0
r 1.120743 23 45 cbr 666 ------- 1 6.0.0.0 3.0.4.0 3 68
D 1.120742580 _45_ RTR  CBK 50 cbr 666 [0 0 2a 800] ------- [25165824:0 12582916:0 27 12582916] [2] 0 0
D 1.120742580 _45_ RTR  CBK 68 cbr 666 [0 0 2a 800] ------- [25165824:0 12582916:0 27 12582916] [3] 0 0
r 1.120809 23 45 cbr 666 ------- 2 7.0.0.0 3.0.5.0 2 51
D 1.120809180 _45_ IFQ  ARP 33 cbr 666 [0 0 2a 800] ------- [29360128:0 12582917:0 27 12582917] [1] 0 0
r 1.120876 23 45 cbr 666 ------- 2 7.0.0.0 3.0.5.0 3 69
D 1.120875780 _45_ RTR  CBK 51 cbr 666 [0 0 2a 800] ------- [29360128:0 12582917:0 27 12582917] [2] 0 0
D 1.120875780 _45_ RTR  CBK 69 cbr 666 [0 0 2a 800] ------- [29360128:0 12582917:0 27 12582917] [3] 0 0
r 1.120942 23 45 cbr 666 ------- 3 8.0.0.0 3.0.6.0 2 52
D 1.120942380 _45_ IFQ  ARP 34 cbr 666 [0 0 2a 800] ------- [33554432:0 12582918:0 27 12582918] [1] 0 0
r 1.121009 23 45 cbr 666 ------- 3 8.0.0.0 3.0.6.0 3 70
D 1.121008980 _45_ RTR  CBK 52 cbr 666 [0 0 2a 800] ------- [33554432:0 12582918:0 27 12582918] [2] 0 0
D 1.121008980 _45_ RTR  CBK 70 cbr 666 [0 0 2a 800] ------- [33554432:0 12582918:0 27 12582918] [3] 0 0
r 1.121076 23 45 cbr 666 ------- 4 9.0.0.0 3.0.7.0 2 53
D 1.121075580 _45_ IFQ  ARP 35 cbr 666 [0 0 2a 800] ------- [37748736:0 12582919:0 27 12582919] [1] 0 0
r 1.121142 23 45 cbr 666 ------- 4 9.0.0.0 3.0.7.0 3 71
D 1.121142180 _45_ RTR  CBK 53 cbr 666 [0 0 2a 800] ------- [37748736:0 12582919:0 27 12582919] [2] 0 0
D 1.121142180 _45_ RTR  CBK 71 cbr 666 [0 0 2a 800] ------- [37748736:0 12582919:0 27 12582919] [3] 0 0
r 1.121209 23 45 cbr 666 ------- 5 10.0.0.0 3.0.8.0 2 54
D 1.121208780 _45_ IFQ  ARP 36 cbr 666 [0 0 2a 800] ------- [41943040:0 12582920:0 27 12582920] [1] 0 0
r 1.121275 23 45 cbr 666 ------- 5 10.0.0.0 3.0.8.0 3 72
D 1.121275380 _45_ RTR  CBK 54 cbr 666 [0 0 2a 800] ------- [41943040:0 12582920:0 27 12582920] [2] 0 0
D 1.121275380 _45_ RTR  CBK 72 cbr 666 [0 0 2a 800] ------- [41943040:0 12582920:0 27 12582920] [3] 0 0
r 1.121342 23 45 cbr 666 ------- 6 11.0.0.0 3.0.9.0 2 55
D 1.121341980 _45_ IFQ  ARP 37 cbr 666 [0 0 2a 800] ------- [46137344:0 12582921:0 27 12582921] [1] 0 0
r 1.121409 23 45 cbr 666 ------- 6 11.0.0.0 3.0.9.0 3 73
D 1.121408580 _45_ RTR  CBK 55 cbr 666 [0 0 2a 800] ------- [46137344:0 12582921:0 27 12582921] [2] 0 0
D 1.121408580 _45_ RTR  CBK 73 cbr 666 [0 0 2a 800] ------- [46137344:0 12582921:0 27 12582921] [3] 0 0
r 1.121475 23 45 cbr 666 ------- 7 12.0.0.0 3.0.10.0 2 56
D 1.121475180 _45_ IFQ  ARP 38 cbr 666 [0 0 2a 800] ------- [50331648:0 12582922:0 27 12582922] [1] 0 0
r 1.121542 23 45 cbr 666 ------- 7 12.0.0.0 3.0.10.0 3 74
D 1.121541780 _45_ RTR  CBK 56 cbr 666 [0 0 2a 800] ------- [50331648:0 12582922:0 27 12582922] [2] 0 0
D 1.121541780 _45_ RTR  CBK 74 cbr 666 [0 0 2a 800] ------- [50331648:0 12582922:0 27 12582922] [3] 0 0
r 1.121608 23 45 cbr 666 ------- 8 13.0.0.0 3.0.11.0 2 57
D 1.121608380 _45_ IFQ  ARP 39 cbr 666 [0 0 2a 800] ------- [54525952:0 12582923:0 27 12582923] [1] 0 0
r 1.121675 23 45 cbr 666 ------- 8 13.0.0.0 3.0.11.0 3 75
D 1.121674980 _45_ RTR  CBK 57 cbr 666 [0 0 2a 800] ------- [54525952:0 12582923:0 27 12582923] [2] 0 0
D 1.121674980 _45_ RTR  CBK 75 cbr 666 [0 0 2a 800] ------- [54525952:0 12582923:0 27 12582923] [3] 0 0
r 1.121742 23 45 cbr 666 ------- 9 14.0.0.0 3.0.12.0 2 58
D 1.121741580 _45_ IFQ  ARP 40 cbr 666 [0 0 2a 800] ------- [58720256:0 12582924:0 27 12582924] [1] 0 0
r 1.121808 23 45 cbr 666 ------- 9 14.0.0.0 3.0.12.0 3 76
D 1.121808180 _45_ RTR  CBK 58 cbr 666 [0 0 2a 800] ------- [58720256:0 12582924:0 27 12582924] [2] 0 0
D 1.121808180 _45_ RTR  CBK 76 cbr 666 [0 0 2a 800] ------- [58720256:0 12582924:0 27 12582924] [3] 0 0
r 1.125481 22 23 cbr 666 ------- 0 5.0.0.0 3.0.3.0 4 85
+ 1.125481 23 45 cbr 666 ------- 0 5.0.0.0 3.0.3.0 4 85
- 1.125481 23 45 cbr 666 ------- 0 5.0.0.0 3.0.3.0 4 85
r 1.125493 22 23 cbr 666 ------- 1 6.0.0.0 3.0.4.0 4 86
+ 1.125493 23 45 cbr 666 ------- 1 6.0.0.0 3.0.4.0 4 86
r 1.125506 22 23 cbr 666 ------- 2 7.0.0.0 3.0.5.0 4 87
+ 1.125506 23 45 cbr 666 ------- 2 7.0.0.0 3.0.5.0 4 87
r 1.125518 22 23 cbr 666 ------- 3 8.0.0.0 3.0.6.0 4 88
+ 1.125518 23 45 cbr 666 ------- 3 8.0.0.0 3.0.6.0 4 88
r 1.12553 22 23 cbr 666 ------- 4 9.0.0.0 3.0.7.0 4 89
+ 1.12553 23 45 cbr 666 ------- 4 9.0.0.0 3.0.7.0 4 89
r 1.125543 22 23 cbr 666 ------- 5 10.0.0.0 3.0.8.0 4 90
+ 1.125543 23 45 cbr 666 ------- 5 10.0.0.0 3.0.8.0 4 90
- 1.125547 23 45 cbr 666 ------- 1 6.0.0.0 3.0.4.0 4 86
r 1.125555 22 23 cbr 666 ------- 6 11.0.0.0 3.0.9.0 4 91
+ 1.125555 23 45 cbr 666 ------- 6 11.0.0.0 3.0.9.0 4 91
r 1.125567 22 23 cbr 666 ------- 7 12.0.0.0 3.0.10.0 4 92
+ 1.125567 23 45 cbr 666 ------- 7 12.0.0.0 3.0.10.0 4 92
r 1.12558 22 23 cbr 666 ------- 8 13.0.0.0 3.0.11.0 4 93
+ 1.12558 23 45 cbr 666 ------- 8 13.0.0.0 3.0.11.0 4 93
r 1.125592 22 23 cbr 666 ------- 9 14.0.0.0 3.0.12.0 4 94
+ 1.125592 23 45 cbr 666 ------- 9 14.0.0.0 3.0.12.0 4 94
- 1.125614 23 45 cbr 666 ------- 2 7.0.0.0 3.0.5.0 4 87
- 1.125681 23 45 cbr 666 ------- 3 8.0.0.0 3.0.6.0 4 88
- 1.125747 23 45 cbr 666 ------- 4 9.0.0.0 3.0.7.0 4 89
- 1.125814 23 45 cbr 666 ------- 5 10.0.0.0 3.0.8.0 4 90
- 1.12588 23 45 cbr 666 ------- 6 11.0.0.0 3.0.9.0 4 91
- 1.125947 23 45 cbr 666 ------- 7 12.0.0.0 3.0.10.0 4 92
- 1.126014 23 45 cbr 666 ------- 8 13.0.0.0 3.0.11.0 4 93
- 1.12608 23 45 cbr 666 ------- 9 14.0.0.0 3.0.12.0 4 94
+ 1.135068 0 22 cbr 666 ------- 0 5.0.0.0 3.0.3.0 5 103
- 1.135068 0 22 cbr 666 ------- 0 5.0.0.0 3.0.3.0 5 103
+ 1.135076 0 22 cbr 666 ------- 0 5.0.0.0 3.0.3.0 6 121
- 1.135076 0 22 cbr 666 ------- 0 5.0.0.0 3.0.3.0 6 121
+ 1.13508 0 22 cbr 666 ------- 1 6.0.0.0 3.0.4.0 5 104
- 1.135085 0 22 cbr 666 ------- 1 6.0.0.0 3.0.4.0 5 104
+ 1.135088 0 22 cbr 666 ------- 1 6.0.0.0 3.0.4.0 6 122
+ 1.135092 0 22 cbr 666 ------- 2 7.0.0.0 3.0.5.0 5 105
- 1.135093 0 22 cbr 666 ------- 1 6.0.0.0 3.0.4.0 6 122
+ 1.1351 0 22 cbr 666 ------- 2 7.0.0.0 3.0.5.0 6 123
- 1.135102 0 22 cbr 666 ------- 2 7.0.0.0 3.0.5.0 5 105
+ 1.135105 0 22 cbr 666 ------- 3 8.0.0.0 3.0.6.0 5 106
- 1.13511 0 22 cbr 666 ------- 2 7.0.0.0 3.0.5.0 6 123
+ 1.135113 0 22 cbr 666 ------- 3 8.0.0.0 3.0.6.0 6 124
+ 1.135117 0 22 cbr 666 ------- 4 9.0.0.0 3.0.7.0 5 107
- 1.135119 0 22 cbr 666 ------- 3 8.0.0.0 3.0.6.0 5 106
+ 1.135125 0 22 cbr 666 ------- 4 9.0.0.0 3.0.7.0 6 125
- 1.135128 0 22 cbr 666 ------- 3 8.0.0.0 3.0.6.0 6 124