+ 1.055074 0 22 cbr 666 ------- 0 11.0.0.0 4.0.0.0 0 13
- 1.055074 0 22 cbr 666 ------- 0 11.0.0.0 4.0.0.0 0 13
r 1.055482 0 22 cbr 666 ------- 0 11.0.0.0 4.0.0.0 0 13
+ 1.055482 22 23 cbr 666 ------- 0 11.0.0.0 4.0.0.0 0 13
- 1.055482 22 23 cbr 666 ------- 0 11.0.0.0 4.0.0.0 0 13
r 1.065483 22 23 cbr 666 ------- 0 11.0.0.0 4.0.0.0 0 13
+ 1.065483 23 25 cbr 666 ------- 0 11.0.0.0 4.0.0.0 0 13
- 1.065483 23 25 cbr 666 ------- 0 11.0.0.0 4.0.0.0 0 13
+ 1.07507 0 22 cbr 666 ------- 0 11.0.0.0 4.0.0.0 1 18
- 1.07507 0 22 cbr 666 ------- 0 11.0.0.0 4.0.0.0 1 18
r 1.075479 0 22 cbr 666 ------- 0 11.0.0.0 4.0.0.0 1 18
+ 1.075479 22 23 cbr 666 ------- 0 11.0.0.0 4.0.0.0 1 18
- 1.075479 22 23 cbr 666 ------- 0 11.0.0.0 4.0.0.0 1 18
r 1.08055 23 25 cbr 666 ------- 0 11.0.0.0 4.0.0.0 0 13
r 1.08548 22 23 cbr 666 ------- 0 11.0.0.0 4.0.0.0 1 18
+ 1.08548 23 25 cbr 666 ------- 0 11.0.0.0 4.0.0.0 1 18
- 1.08548 23 25 cbr 666 ------- 0 11.0.0.0 4.0.0.0 1 18
+ 1.095067 0 22 cbr 666 ------- 0 11.0.0.0 4.0.0.0 2 23
- 1.095067 0 22 cbr 666 ------- 0 11.0.0.0 4.0.0.0 2 23
+ 1.095075 0 22 cbr 666 ------- 0 11.0.0.0 4.0.0.0 3 28
- 1.095075 0 22 cbr 666 ------- 0 11.0.0.0 4.0.0.0 3 28
r 1.095475 0 22 cbr 666 ------- 0 11.0.0.0 4.0.0.0 2 23
+ 1.095475 22 23 cbr 666 ------- 0 11.0.0.0 4.0.0.0 2 23
- 1.095475 22 23 cbr 666 ------- 0 11.0.0.0 4.0.0.0 2 23
r 1.095484 0 22 cbr 666 ------- 0 11.0.0.0 4.0.0.0 3 28
+ 1.095484 22 23 cbr 666 ------- 0 11.0.0.0 4.0.0.0 3 28
- 1.095484 22 23 cbr 666 ------- 0 11.0.0.0 4.0.0.0 3 28
r 1.100546 23 25 cbr 666 ------- 0 11.0.0.0 4.0.0.0 1 18
r 1.105476 22 23 cbr 666 ------- 0 11.0.0.0 4.0.0.0 2 23
+ 1.105476 23 25 cbr 666 ------- 0 11.0.0.0 4.0.0.0 2 23
- 1.105476 23 25 cbr 666 ------- 0 11.0.0.0 4.0.0.0 2 23
r 1.105485 22 23 cbr 666 ------- 0 11.0.0.0 4.0.0.0 3 28
+ 1.105485 23 25 cbr 666 ------- 0 11.0.0.0 4.0.0.0 3 28
- 1.105543 23 25 cbr 666 ------- 0 11.0.0.0 4.0.0.0 3 28
+ 1.115071 0 22 cbr 666 ------- 0 11.0.0.0 4.0.0.0 4 33
- 1.115071 0 22 cbr 666 ------- 0 11.0.0.0 4.0.0.0 4 33
r 1.11548 0 22 cbr 666 ------- 0 11.0.0.0 4.0.0.0 4 33
+ 1.11548 22 23 cbr 666 ------- 0 11.0.0.0 4.0.0.0 4 33
- 1.11548 22 23 cbr 666 ------- 0 11.0.0.0 4.0.0.0 4 33
r 1.120543 23 25 cbr 666 ------- 0 11.0.0.0 4.0.0.0 2 23
r 1.120609 23 25 cbr 666 ------- 0 11.0.0.0 4.0.0.0 3 28
r 1.125481 22 23 cbr 666 ------- 0 11.0.0.0 4.0.0.0 4 33
+ 1.125481 23 25 cbr 666 ------- 0 11.0.0.0 4.0.0.0 4 33
- 1.125481 23 25 cbr 666 ------- 0 11.0.0.0 4.0.0.0 4 33
+ 1.135068 0 22 cbr 666 ------- 0 11.0.0.0 4.0.0.0 5 38
- 1.135068 0 22 cbr 666 ------- 0 11.0.0.0 4.0.0.0 5 38
+ 1.135076 0 22 cbr 666 ------- 0 11.0.0.0 4.0.0.0 6 43
- 1.135076 0 22 cbr 666 ------- 0 11.0.0.0 4.0.0.0 6 43
r 1.135476 0 22 cbr 666 ------- 0 11.0.0.0 4.0.0.0 5 38
+ 1.135476 22 23 cbr 666 ------- 0 11.0.0.0 4.0.0.0 5 38
- 1.135476 22 23 cbr 666 ------- 0 11.0.0.0 4.0.0.0 5 38
r 1.135485 0 22 cbr 666 ------- 0 11.0.0.0 4.0.0.0 6 43
+ 1.135485 22 23 cbr 666 ------- 0 11.0.0.0 4.0.0.0 6 43
- 1.135485 22 23 cbr 666 ------- 0 11.0.0.0 4.0.0.0 6 43
r 1.140547 23 25 cbr 666 ------- 0 11.0.0.0 4.0.0.0 4 33
r 1.145477 22 23 cbr 666 ------- 0 11.0.0.0 4.0.0.0 5 38
+ 1.145477 23 25 cbr 666 ------- 0 11.0.0.0 4.0.0.0 5 38
- 1.145477 23 25 cbr 666 ------- 0 11.0.0.0 4.0.0.0 5 38
r 1.145486 22 23 cbr 666 ------- 0 11.0.0.0 4.0.0.0 6 43
+ 1.145486 23 25 cbr 666 ------- 0 11.0.0.0 4.0.0.0 6 43
- 1.145544 23 25 cbr 666 ------- 0 11.0.0.0 4.0.0.0 6 43
+ 1.155072 0 22 cbr 666 ------- 0 11.0.0.0 4.0.0.0 7 48
- 1.155072 0 22 cbr 666 ------- 0 11.0.0.0 4.0.0.0 7 48
r 1.155481 0 22 cbr 666 ------- 0 11.0.0.0 4.0.0.0 7 48
+ 1.155481 22 23 cbr 666 ------- 0 11.0.0.0 4.0.0.0 7 48
- 1.155481 22 23 cbr 666 ------- 0 11.0.0.0 4.0.0.0 7 48
r 1.160544 23 25 cbr 666 ------- 0 11.0.0.0 4.0.0.0 5 38
r 1.16061 23 25 cbr 666 ------- 0 11.0.0.0 4.0.0.0 6 43
r 1.165482 22 23 cbr 666 ------- 0 11.0.0.0 4.0.0.0 7 48
+ 1.165482 23 25 cbr 666 ------- 0 11.0.0.0 4.0.0.0 7 48
- 1.165482 23 25 cbr 666 ------- 0 11.0.0.0 4.0.0.0 7 48
+ 1.175069 0 22 cbr 666 ------- 0 11.0.0.0 4.0.0.0 8 53
- 1.175069 0 22 cbr 666 ------- 0 11.0.0.0 4.0.0.0 8 53
+ 1.175077 0 22 cbr 666 ------- 0 11.0.0.0 4.0.0.0 9 58
- 1.175077 0 22 cbr 666 ------- 0 11.0.0.0 4.0.0.0 9 58
r 1.175477 0 22 cbr 666 ------- 0 11.0.0.0 4.0.0.0 8 53
+ 1.175477 22 23 cbr 666 ------- 0 11.0.0.0 4.0.0.0 8 53
- 1.175477 22 23 cbr 666 ------- 0 11.0.0.0 4.0.0.0 8 53
r 1.175486 0 22 cbr 666 ------- 0 11.0.0.0 4.0.0.0 9 58
+ 1.175486 22 23 cbr 666 ------- 0 11.0.0.0 4.0.0.0 9 58
- 1.175486 22 23 cbr 666 ------- 0 11.0.0.0 4.0.0.0 9 58
r 1.180548 23 25 cbr 666 ------- 0 11.0.0.0 4.0.0.0 7 48
r 1.185478 22 23 cbr 666 ------- 0 11.0.0.0 4.0.0.0 8 53
+ 1.185478 23 25 cbr 666 ------- 0 11.0.0.0 4.0.0.0 8 53
- 1.185478 23 25 cbr 666 ------- 0 11.0.0.0 4.0.0.0 8 53
r 1.185487 22 23 cbr 666 ------- 0 11.0.0.0 4.0.0.0 9 58
+ 1.185487 23 25 cbr 666 ------- 0 11.0.0.0 4.0.0.0 9 58
- 1.185545 23 25 cbr 666 ------- 0 11.0.0.0 4.0.0.0 9 58
+ 1.195073 0 22 cbr 666 ------- 0 11.0.0.0 4.0.0.0 10 64
- 1.195073 0 22 cbr 666 ------- 0 11.0.0.0 4.0.0.0 10 64
r 1.195482 0 22 cbr 666 ------- 0 11.0.0.0 4.0.0.0 10 64
+ 1.195482 22 23 cbr 666 ------- 0 11.0.0.0 4.0.0.0 10 64
- 1.195482 22 23 cbr 666 ------- 0 11.0.0.0 4.0.0.0 10 64
r 1.200545 23 25 cbr 666 ------- 0 11.0.0.0 4.0.0.0 8 53
r 1.200611 23 25 cbr 666 ------- 0 11.0.0.0 4.0.0.0 9 58
r 1.205483 22 23 cbr 666 ------- 0 11.0.0.0 4.0.0.0 10 64
+ 1.205483 23 25 cbr 666 ------- 0 11.0.0.0 4.0.0.0 10 64
- 1.205483 23 25 cbr 666 ------- 0 11.0.0.0 4.0.0.0 10 64
+ 1.21507 0 22 cbr 666 ------- 0 11.0.0.0 4.0.0.0 11 69
- 1.21507 0 22 cbr 666 ------- 0 11.0.0.0 4.0.0.0 11 69
r 1.215478 0 22 cbr 666 ------- 0 11.0.0.0 4.0.0.0 11 69
+ 1.215478 22 23 cbr 666 ------- 0 11.0.0.0 4.0.0.0 11 69
- 1.215478 22 23 cbr 666 ------- 0 11.0.0.0 4.0.0.0 11 69
r 1.220549 23 25 cbr 666 ------- 0 11.0.0.0 4.0.0.0 10 64
r 1.225479 22 23 cbr 666 ------- 0 11.0.0.0 4.0.0.0 11 69
+ 1.225479 23 25 cbr 666 ------- 0 11.0.0.0 4.0.0.0 11 69
- 1.225479 23 25 cbr 666 ------- 0 11.0.0.0 4.0.0.0 11 69
+ 1.235066 0 22 cbr 666 ------- 0 11.0.0.0 4.0.0.0 12 74
- 1.235066 0 22 cbr 666 ------- 0 11.0.0.0 4.0.0.0 12 74
+ 1.235074 0 22 cbr 666 ------- 0 11.0.0.0 4.0.0.0 13 79
- 1.235075 0 22 cbr 666 ------- 0 11.0.0.0 4.0.0.0 13 79
r 1.235475 0 22 cbr 666 ------- 0 11.0.0.0 4.0.0.0 12 74
+ 1.235475 22 23 cbr 666 ------- 0 11.0.0.0 4.0.0.0 12 74
- 1.235475 22 23 cbr 666 ------- 0 11.0.0.0 4.0.0.0 12 74
r 1.235483 0 22 cbr 666 ------- 0 11.0.0.0 4.0.0.0 13 79
+ 1.235483 22 23 cbr 666 ------- 0 11.0.0.0 4.0.0.0 13 79
- 1.235483 22 23 cbr 666 ------- 0 11.0.0.0 4.0.0.0 13 79
r 1.240546 23 25 cbr 666 ------- 0 11.0.0.0 4.0.0.0 11 69
r 1.245476 22 23 cbr 666 ------- 0 11.0.0.0 4.0.0.0 12 74
+ 1.245476 23 25 cbr 666 ------- 0 11.0.0.0 4.0.0.0 12 74
- 1.245476 23 25 cbr 666 ------- 0 11.0.0.0 4.0.0.0 12 74
r 1.245484 22 23 cbr 666 ------- 0 11.0.0.0 4.0.0.0 13 79
+ 1.245484 23 25 cbr 666 ------- 0 11.0.0.0 4.0.0.0 13 79
- 1.245542 23 25 cbr 666 ------- 0 11.0.0.0 4.0.0.0 13 79
+ 1.255071 0 22 cbr 666 ------- 0 11.0.0.0 4.0.0.0 14 84
- 1.255071 0 22 cbr 666 ------- 0 11.0.0.0 4.0.0.0 14 84
r 1.255479 0 22 cbr 666 ------- 0 11.0.0.0 4.0.0.0 14 84
+ 1.255479 22 23 cbr 666 ------- 0 11.0.0.0 4.0.0.0 14 84
- 1.255479 22 23 cbr 666 ------- 0 11.0.0.0 4.0.0.0 14 84
r 1.260542 23 25 cbr 666 ------- 0 11.0.0.0 4.0.0.0 12 74
r 1.260609 23 25 cbr 666 ------- 0 11.0.0.0 4.0.0.0 13 79
r 1.26548 22 23 cbr 666 ------- 0 11.0.0.0 4.0.0.0 14 84
+ 1.26548 23 25 cbr 666 ------- 0 11.0.0.0 4.0.0.0 14 84
- 1.26548 23 25 cbr 666 ------- 0 11.0.0.0 4.0.0.0 14 84
+ 1.275067 0 22 cbr 666 ------- 0 11.0.0.0 4.0.0.0 15 89
- 1.275067 0 22 cbr 666 ------- 0 11.0.0.0 4.0.0.0 15 89
+ 1.275075 0 22 cbr 666 ------- 0 11.0.0.0 4.0.0.0 16 94
- 1.275076 0 22 cbr 666 ------- 0 11.0.0.0 4.0.0.0 16 94
r 1.275476 0 22 cbr 666 ------- 0 11.0.0.0 4.0.0.0 15 89
+ 1.275476 22 23 cbr 666 ------- 0 11.0.0.0 4.0.0.0 15 89
- 1.275476 22 23 cbr 666 ------- 0 11.0.0.0 4.0.0.0 15 89
r 1.275484 0 22 cbr 666 ------- 0 11.0.0.0 4.0.0.0 16 94
+ 1.275484 22 23 cbr 666 ------- 0 11.0.0.0 4.0.0.0 16 94
- 1.275484 22 23 cbr 666 ------- 0 11.0.0.0 4.0.0.0 16 94
r 1.280547 23 25 cbr 666 ------- 0 11.0.0.0 4.0.0.0 14 84
r 1.285477 22 23 cbr 666 ------- 0 11.0.0.0 4.0.0.0 15 89
+ 1.285477 23 25 cbr 666 ------- 0 11.0.0.0 4.0.0.0 15 89
- 1.285477 23 25 cbr 666 ------- 0 11.0.0.0 4.0.0.0 15 89
r 1.285485 22 23 cbr 666 ------- 0 11.0.0.0 4.0.0.0 16 94
+ 1.285485 23 25 cbr 666 ------- 0 11.0.0.0 4.0.0.0 16 94
- 1.285543 23 25 cbr 666 ------- 0 11.0.0.0 4.0.0.0 16 94
+ 1.295072 0 22 cbr 666 ------- 0 11.0.0.0 4.0.0.0 17 99
- 1.295072 0 22 cbr 666 ------- 0 11.0.0.0 4.0.0.0 17 99
r 1.29548 0 22 cbr 666 ------- 0 11.0.0.0 4.0.0.0 17 99
+ 1.29548 22 23 cbr 666 ------- 0 11.0.0.0 4.0.0.0 17 99
- 1.29548 22 23 cbr 666 ------- 0 11.0.0.0 4.0.0.0 17 99
r 1.300543 23 25 cbr 666 ------- 0 11.0.0.0 4.0.0.0 15 89
r 1.30061 23 25 cbr 666 ------- 0 11.0.0.0 4.0.0.0 16 94
r 1.305481 22 23 cbr 666 ------- 0 11.0.0.0 4.0.0.0 17 99
+ 1.305481 23 25 cbr 666 ------- 0 11.0.0.0 4.0.0.0 17 99
- 1.305481 23 25 cbr 666 ------- 0 11.0.0.0 4.0.0.0 17 99
+ 1.315068 0 22 cbr 666 ------- 0 11.0.0.0 4.0.0.0 18 104
- 1.315068 0 22 cbr 666 ------- 0 11.0.0.0 4.0.0.0 18 104
+ 1.315076 0 22 cbr 666 ------- 0 11.0.0.0 4.0.0.0 19 109
- 1.315077 0 22 cbr 666 ------- 0 11.0.0.0 4.0.0.0 19 109
r 1.315477 0 22 cbr 666 ------- 0 11.0.0.0 4.0.0.0 18 104
+ 1.315477 22 23 cbr 666 ------- 0 11.0.0.0 4.0.0.0 18 104
- 1.315477 22 23 cbr 666 ------- 0 11.0.0.0 4.0.0.0 18 104
r 1.315485 0 22 cbr 666 ------- 0 11.0.0.0 4.0.0.0 19 109
+ 1.315485 22 23 cbr 666 ------- 0 11.0.0.0 4.0.0.0 19 109
- 1.315485 22 23 cbr 666 ------- 0 11.0.0.0 4.0.0.0 19 109
r 1.320548 23 25 cbr 666 ------- 0 11.0.0.0 4.0.0.0 17 99
r 1.325478 22 23 cbr 666 ------- 0 11.0.0.0 4.0.0.0 18 104
+ 1.325478 23 25 cbr 666 ------- 0 11.0.0.0 4.0.0.0 18 104
- 1.325478 23 25 cbr 666 ------- 0 11.0.0.0 4.0.0.0 18 104
r 1.325486 22 23 cbr 666 ------- 0 11.0.0.0 4.0.0.0 19 109
+ 1.325486 23 25 cbr 666 ------- 0 11.0.0.0 4.0.0.0 19 109
- 1.325544 23 25 cbr 666 ------- 0 11.0.0.0 4.0.0.0 19 109
+ 1.335073 0 22 cbr 666 ------- 0 11.0.0.0 4.0.0.0 20 114
- 1.335073 0 22 cbr 666 ------- 0 11.0.0.0 4.0.0.0 20 114
r 1.335481 0 22 cbr 666 ------- 0 11.0.0.0 4.0.0.0 20 114
+ 1.335481 22 23 cbr 666 ------- 0 11.0.0.0 4.0.0.0 20 114
- 1.335481 22 23 cbr 666 ------- 0 11.0.0.0 4.0.0.0 20 114
r 1.340544 23 25 cbr 666 ------- 0 11.0.0.0 4.0.0.0 18 104
r 1.340611 23 25 cbr 666 ------- 0 11.0.0.0 4.0.0.0 19 109
r 1.345482 22 23 cbr 666 ------- 0 11.0.0.0 4.0.0.0 20 114
+ 1.345482 23 25 cbr 666 ------- 0 11.0.0.0 4.0.0.0 20 114
- 1.345482 23 25 cbr 666 ------- 0 11.0.0.0 4.0.0.0 20 114
+ 1.355069 0 22 cbr 666 ------- 0 11.0.0.0 4.0.0.0 21 119
- 1.355069 0 22 cbr 666 ------- 0 11.0.0.0 4.0.0.0 21 119
r 1.355478 0 22 cbr 666 ------- 0 11.0.0.0 4.0.0.0 21 119
+ 1.355478 22 23 cbr 666 ------- 0 11.0.0.0 4.0.0.0 21 119
- 1.355478 22 23 cbr 666 ------- 0 11.0.0.0 4.0.0.0 21 119
r 1.360549 23 25 cbr 666 ------- 0 11.0.0.0 4.0.0.0 20 114
r 1.365479 22 23 cbr 666 ------- 0 11.0.0.0 4.0.0.0 21 119
+ 1.365479 23 25 cbr 666 ------- 0 11.0.0.0 4.0.0.0 21 119
- 1.365479 23 25 cbr 666 ------- 0 11.0.0.0 4.0.0.0 21 119
+ 1.375066 0 22 cbr 666 ------- 0 11.0.0.0 4.0.0.0 22 124
- 1.375066 0 22 cbr 666 ------- 0 11.0.0.0 4.0.0.0 22 124
+ 1.375074 0 22 cbr 666 ------- 0 11.0.0.0 4.0.0.0 23 129
- 1.375074 0 22 cbr 666 ------- 0 11.0.0.0 4.0.0.0 23 129
r 1.375474 0 22 cbr 666 ------- 0 11.0.0.0 4.0.0.0 22 124
+ 1.375474 22 23 cbr 666 ------- 0 11.0.0.0 4.0.0.0 22 124
- 1.375474 22 23 cbr 666 ------- 0 11.0.0.0 4.0.0.0 22 124
r 1.375483 0 22 cbr 666 ------- 0 11.0.0.0 4.0.0.0 23 129
+ 1.375483 22 23 cbr 666 ------- 0 11.0.0.0 4.0.0.0 23 129
- 1.375483 22 23 cbr 666 ------- 0 11.0.0.0 4.0.0.0 23 129
r 1.380545 23 25 cbr 666 ------- 0 11.0.0.0 4.0.0.0 21 119
r 1.385475 22 23 cbr 666 ------- 0 11.0.0.0 4.0.0.0 22 124
+ 1.385475 23 25 cbr 666 ------- 0 11.0.0.0 4.0.0.0 22 124
- 1.385475 23 25 cbr 666 ------- 0 11.0.0.0 4.0.0.0 22 124
r 1.385484 22 23 cbr 666 ------- 0 11.0.0.0 4.0.0.0 23 129
+ 1.385484 23 25 cbr 666 ------- 0 11.0.0.0 4.0.0.0 23 129
- 1.385542 23 25 cbr 666 ------- 0 11.0.0.0 4.0.0.0 23 129
+ 1.39507 0 22 cbr 666 ------- 0 11.0.0.0 4.0.0.0 24 136
- 1.39507 0 22 cbr 666 ------- 0 11.0.0.0 4.0.0.0 24 136
r 1.395479 0 22 cbr 666 ------- 0 11.0.0.0 4.0.0.0 24 136
+ 1.395479 22 23 cbr 666 ------- 0 11.0.0.0 4.0.0.0 24 136
- 1.395479 22 23 cbr 666 ------- 0 11.0.0.0 4.0.0.0 24 136
r 1.400542 23 25 cbr 666 ------- 0 11.0.0.0 4.0.0.0 22 124
r 1.400608 23 25 cbr 666 ------- 0 11.0.0.0 4.0.0.0 23 129
r 1.40548 22 23 cbr 666 ------- 0 11.0.0.0 4.0.0.0 24 136
+ 1.40548 23 25 cbr 666 ------- 0 11.0.0.0 4.0.0.0 24 136
- 1.40548 23 25 cbr 666 ------- 0 11.0.0.0 4.0.0.0 24 136
+ 1.415067 0 22 cbr 666 ------- 0 11.0.0.0 4.0.0.0 25 141
- 1.415067 0 22 cbr 666 ------- 0 11.0.0.0 4.0.0.0 25 141
+ 1.415075 0 22 cbr 666 ------- 0 11.0.0.0 4.0.0.0 26 146
- 1.415075 0 22 cbr 666 ------- 0 11.0.0.0 4.0.0.0 26 146
r 1.415475 0 22 cbr 666 ------- 0 11.0.0.0 4.0.0.0 25 141
+ 1.415475 22 23 cbr 666 ------- 0 11.0.0.0 4.0.0.0 25 141
- 1.415475 22 23 cbr 666 ------- 0 11.0.0.0 4.0.0.0 25 141
r 1.415484 0 22 cbr 666 ------- 0 11.0.0.0 4.0.0.0 26 146
+ 1.415484 22 23 cbr 666 ------- 0 11.0.0.0 4.0.0.0 26 146
- 1.415484 22 23 cbr 666 ------- 0 11.0.0.0 4.0.0.0 26 146
r 1.420546 23 25 cbr 666 ------- 0 11.0.0.0 4.0.0.0 24 136
r 1.425476 22 23 cbr 666 ------- 0 11.0.0.0 4.0.0.0 25 141
+ 1.425476 23 25 cbr 666 ------- 0 11.0.0.0 4.0.0.0 25 141
- 1.425476 23 25 cbr 666 ------- 0 11.0.0.0 4.0.0.0 25 141
r 1.425485 22 23 cbr 666 ------- 0 11.0.0.0 4.0.0.0 26 146
+ 1.425485 23 25 cbr 666 ------- 0 11.0.0.0 4.0.0.0 26 146
- 1.425543 23 25 cbr 666 ------- 0 11.0.0.0 4.0.0.0 26 146
+ 1.435071 0 22 cbr 666 ------- 0 11.0.0.0 4.0.0.0 27 151
- 1.435071 0 22 cbr 666 ------- 0 11.0.0.0 4.0.0.0 27 151
r 1.43548 0 22 cbr 666 ------- 0 11.0.0.0 4.0.0.0 27 151
+ 1.43548 22 23 cbr 666 ------- 0 11.0.0.0 4.0.0.0 27 151
- 1.43548 22 23 cbr 666 ------- 0 11.0.0.0 4.0.0.0 27 151
r 1.440543 23 25 cbr 666 ------- 0 11.0.0.0 4.0.0.0 25 141
r 1.440609 23 25 cbr 666 ------- 0 11.0.0.0 4.0.0.0 26 146
r 1.445481 22 23 cbr 666 ------- 0 11.0.0.0 4.0.0.0 27 151
+ 1.445481 23 25 cbr 666 ------- 0 11.0.0.0 4.0.0.0 27 151
- 1.445481 23 25 cbr 666 ------- 0 11.0.0.0 4.0.0.0 27 151
+ 1.455068 0 22 cbr 666 ------- 0 11.0.0.0 4.0.0.0 28 156
- 1.455068 0 22 cbr 666 ------- 0 11.0.0.0 4.0.0.0 28 156
+ 1.455076 0 22 cbr 666 ------- 0 11.0.0.0 4.0.0.0 29 161
- 1.455076 0 22 cbr 666 ------- 0 11.0.0.0 4.0.0.0 29 161
r 1.455476 0 22 cbr 666 ------- 0 11.0.0.0 4.0.0.0 28 156
+ 1.455476 22 23 cbr 666 ------- 0 11.0.0.0 4.0.0.0 28 156
- 1.455476 22 23 cbr 666 ------- 0 11.0.0.0 4.0.0.0 28 156
r 1.455485 0 22 cbr 666 ------- 0 11.0.0.0 4.0.0.0 29 161
+ 1.455485 22 23 cbr 666 ------- 0 11.0.0.0 4.0.0.0 29 161
- 1.455485 22 23 cbr 666 ------- 0 11.0.0.0 4.0.0.0 29 161
r 1.460547 23 25 cbr 666 ------- 0 11.0.0.0 4.0.0.0 27 151
r 1.465477 22 23 cbr 666 ------- 0 11.0.0.0 4.0.0.0 28 156
+ 1.465477 23 25 cbr 666 ------- 0 11.0.0.0 4.0.0.0 28 156
- 1.465477 23 25 cbr 666 ------- 0 11.0.0.0 4.0.0.0 28 156
r 1.465486 22 23 cbr 666 ------- 0 11.0.0.0 4.0.0.0 29 161
+ 1.465486 23 25 cbr 666 ------- 0 11.0.0.0 4.0.0.0 29 161
- 1.465544 23 25 cbr 666 ------- 0 11.0.0.0 4.0.0.0 29 161
+ 1.475072 0 22 cbr 666 ------- 0 11.0.0.0 4.0.0.0 30 166
- 1.475072 0 22 cbr 666 ------- 0 11.0.0.0 4.0.0.0 30 166
r 1.475481 0 22 cbr 666 ------- 0 11.0.0.0 4.0.0.0 30 166
+ 1.475481 22 23 cbr 666 ------- 0 11.0.0.0 4.0.0.0 30 166
- 1.475481 22 23 cbr 666 ------- 0 11.0.0.0 4.0.0.0 30 166
r 1.480544 23 25 cbr 666 ------- 0 11.0.0.0 4.0.0.0 28 156
r 1.48061 23 25 cbr 666 ------- 0 11.0.0.0 4.0.0.0 29 161
r 1.485482 22 23 cbr 666 ------- 0 11.0.0.0 4.0.0.0 30 166
+ 1.485482 23 25 cbr 666 ------- 0 11.0.0.0 4.0.0.0 30 166
- 1.485482 23 25 cbr 666 ------- 0 11.0.0.0 4.0.0.0 30 166
+ 1.495069 0 22 cbr 666 ------- 0 11.0.0.0 4.0.0.0 31 171
- 1.495069 0 22 cbr 666 ------- 0 11.0.0.0 4.0.0.0 31 171
+ 1.495077 0 22 cbr 666 ------- 0 11.0.0.0 4.0.0.0 32 176
- 1.495077 0 22 cbr 666 ------- 0 11.0.0.0 4.0.0.0 32 176
r 1.495477 0 22 cbr 666 ------- 0 11.0.0.0 4.0.0.0 31 171
+ 1.495477 22 23 cbr 666 ------- 0 11.0.0.0 4.0.0.0 31 171
- 1.495477 22 23 cbr 666 ------- 0 11.0.0.0 4.0.0.0 31 171
r 1.495486 0 22 cbr 666 ------- 0 11.0.0.0 4.0.0.0 32 176
+ 1.495486 22 23 cbr 666 ------- 0 11.0.0.0 4.0.0.0 32 176
- 1.495486 22 23 cbr 666 ------- 0 11.0.0.0 4.0.0.0 32 176
r 1.500548 23 25 cbr 666 ------- 0 11.0.0.0 4.0.0.0 30 166
r 1.505478 22 23 cbr 666 ------- 0 11.0.0.0 4.0.0.0 31 171
+ 1.505478 23 25 cbr 666 ------- 0 11.0.0.0 4.0.0.0 31 171
- 1.505478 23 25 cbr 666 ------- 0 11.0.0.0 4.0.0.0 31 171
r 1.505487 22 23 cbr 666 ------- 0 11.0.0.0 4.0.0.0 32 176
+ 1.505487 23 25 cbr 666 ------- 0 11.0.0.0 4.0.0.0 32 176
- 1.505545 23 25 cbr 666 ------- 0 11.0.0.0 4.0.0.0 32 176
+ 1.515073 0 22 cbr 666 ------- 0 11.0.0.0 4.0.0.0 33 181
- 1.515073 0 22 cbr 666 ------- 0 11.0.0.0 4.0.0.0 33 181
r 1.515482 0 22 cbr 666 ------- 0 11.0.0.0 4.0.0.0 33 181
+ 1.515482 22 23 cbr 666 ------- 0 11.0.0.0 4.0.0.0 33 181
- 1.515482 22 23 cbr 666 ------- 0 11.0.0.0 4.0.0.0 33 181
r 1.520545 23 25 cbr 666 ------- 0 11.0.0.0 4.0.0.0 31 171
r 1.520611 23 25 cbr 666 ------- 0 11.0.0.0 4.0.0.0 32 176
r 1.525483 22 23 cbr 666 ------- 0 11.0.0.0 4.0.0.0 33 181
+ 1.525483 23 25 cbr 666 ------- 0 11.0.0.0 4.0.0.0 33 181
- 1.525483 23 25 cbr 666 ------- 0 11.0.0.0 4.0.0.0 33 181
+ 1.53507 0 22 cbr 666 ------- 0 11.0.0.0 4.0.0.0 34 186
- 1.53507 0 22 cbr 666 ------- 0 11.0.0.0 4.0.0.0 34 186
r 1.535478 0 22 cbr 666 ------- 0 11.0.0.0 4.0.0.0 34 186
+ 1.535478 22 23 cbr 666 ------- 0 11.0.0.0 4.0.0.0 34 186
- 1.535478 22 23 cbr 666 ------- 0 11.0.0.0 4.0.0.0 34 186
r 1.540549 23 25 cbr 666 ------- 0 11.0.0.0 4.0.0.0 33 181
r 1.545479 22 23 cbr 666 ------- 0 11.0.0.0 4.0.0.0 34 186
+ 1.545479 23 25 cbr 666 ------- 0 11.0.0.0 4.0.0.0 34 186
- 1.545479 23 25 cbr 666 ------- 0 11.0.0.0 4.0.0.0 34 186
+ 1.555066 0 22 cbr 666 ------- 0 11.0.0.0 4.0.0.0 35 191
- 1.555066 0 22 cbr 666 ------- 0 11.0.0.0 4.0.0.0 35 191
+ 1.555074 0 22 cbr 666 ------- 0 11.0.0.0 4.0.0.0 36 196
- 1.555075 0 22 cbr 666 ------- 0 11.0.0.0 4.0.0.0 36 196
r 1.555475 0 22 cbr 666 ------- 0 11.0.0.0 4.0.0.0 35 191
+ 1.555475 22 23 cbr 666 ------- 0 11.0.0.0 4.0.0.0 35 191
- 1.555475 22 23 cbr 666 ------- 0 11.0.0.0 4.0.0.0 35 191
r 1.555483 0 22 cbr 666 ------- 0 11.0.0.0 4.0.0.0 36 196
+ 1.555483 22 23 cbr 666 ------- 0 11.0.0.0 4.0.0.0 36 196
- 1.555483 22 23 cbr 666 ------- 0 11.0.0.0 4.0.0.0 36 196
r 1.560546 23 25 cbr 666 ------- 0 11.0.0.0 4.0.0.0 34 186
r 1.565476 22 23 cbr 666 ------- 0 11.0.0.0 4.0.0.0 35 191
+ 1.565476 23 25 cbr 666 ------- 0 11.0.0.0 4.0.0.0 35 191
- 1.565476 23 25 cbr 666 ------- 0 11.0.0.0 4.0.0.0 35 191
r 1.565484 22 23 cbr 666 ------- 0 11.0.0.0 4.0.0.0 36 196
+ 1.565484 23 25 cbr 666 ------- 0 11.0.0.0 4.0.0.0 36 196
- 1.565542 23 25 cbr 666 ------- 0 11.0.0.0 4.0.0.0 36 196
+ 1.575071 0 22 cbr 666 ------- 0 11.0.0.0 4.0.0.0 37 201
- 1.575071 0 22 cbr 666 ------- 0 11.0.0.0 4.0.0.0 37 201
r 1.575479 0 22 cbr 666 ------- 0 11.0.0.0 4.0.0.0 37 201
+ 1.575479 22 23 cbr 666 ------- 0 11.0.0.0 4.0.0.0 37 201
- 1.575479 22 23 cbr 666 ------- 0 11.0.0.0 4.0.0.0 37 201
r 1.580542 23 25 cbr 666 ------- 0 11.0.0.0 4.0.0.0 35 191
r 1.580609 23 25 cbr 666 ------- 0 11.0.0.0 4.0.0.0 36 196
r 1.58548 22 23 cbr 666 ------- 0 11.0.0.0 4.0.0.0 37 201
+ 1.58548 23 25 cbr 666 ------- 0 11.0.0.0 4.0.0.0 37 201
- 1.58548 23 25 cbr 666 ------- 0 11.0.0.0 4.0.0.0 37 201
+ 1.595067 0 22 cbr 666 ------- 0 11.0.0.0 4.0.0.0 38 206
- 1.595067 0 22 cbr 666 ------- 0 11.0.0.0 4.0.0.0 38 206
+ 1.595075 0 22 cbr 666 ------- 0 11.0.0.0 4.0.0.0 39 211
- 1.595076 0 22 cbr 666 ------- 0 11.0.0.0 4.0.0.0 39 211
r 1.595476 0 22 cbr 666 ------- 0 11.0.0.0 4.0.0.0 38 206
+ 1.595476 22 23 cbr 666 ------- 0 11.0.0.0 4.0.0.0 38 206
- 1.595476 22 23 cbr 666 ------- 0 11.0.0.0 4.0.0.0 38 206
r 1.595484 0 22 cbr 666 ------- 0 11.0.0.0 4.0.0.0 39 211
+ 1.595484 22 23 cbr 666 ------- 0 11.0.0.0 4.0.0.0 39 211
- 1.595484 22 23 cbr 666 ------- 0 11.0.0.0 4.0.0.0 39 211
r 1.600547 23 25 cbr 666 ------- 0 11.0.0.0 4.0.0.0 37 201
r 1.605477 22 23 cbr 666 ------- 0 11.0.0.0 4.0.0.0 38 206
+ 1.605477 23 25 cbr 666 ------- 0 11.0.0.0 4.0.0.0 38 206
- 1.605477 23 25 cbr 666 ------- 0 11.0.0.0 4.0.0.0 38 206
r 1.605485 22 23 cbr 666 ------- 0 11.0.0.0 4.0.0.0 39 211
+ 1.605485 23 25 cbr 666 ------- 0 11.0.0.0 4.0.0.0 39 211
- 1.605543 23 25 cbr 666 ------- 0 11.0.0.0 4.0.0.0 39 211
+ 1.615072 0 22 cbr 666 ------- 0 11.0.0.0 4.0.0.0 40 216
- 1.615072 0 22 cbr 666 ------- 0 11.0.0.0 4.0.0.0 40 216
r 1.61548 0 22 cbr 666 ------- 0 11.0.0.0 4.0.0.0 40 216
+ 1.61548 22 23 cbr 666 ------- 0 11.0.0.0 4.0.0.0 40 216
- 1.61548 22 23 cbr 666 ------- 0 11.0.0.0 4.0.0.0 40 216
r 1.620543 23 25 cbr 666 ------- 0 11.0.0.0 4.0.0.0 38 206
r 1.62061 23 25 cbr 666 ------- 0 11.0.0.0 4.0.0.0 39 211
r 1.625481 22 23 cbr 666 ------- 0 11.0.0.0 4.0.0.0 40 216
+ 1.625481 23 25 cbr 666 ------- 0 11.0.0.0 4.0.0.0 40 216
- 1.625481 23 25 cbr 666 ------- 0 11.0.0.0 4.0.0.0 40 216
+ 1.635068 0 22 cbr 666 ------- 0 11.0.0.0 4.0.0.0 41 221
- 1.635068 0 22 cbr 666 ------- 0 11.0.0.0 4.0.0.0 41 221
+ 1.635077 0 22 cbr 666 ------- 0 11.0.0.0 4.0.0.0 42 226
- 1.635077 0 22 cbr 666 ------- 0 11.0.0.0 4.0.0.0 42 226
r 1.635477 0 22 cbr 666 ------- 0 11.0.0.0 4.0.0.0 41 221
+ 1.635477 22 23 cbr 666 ------- 0 11.0.0.0 4.0.0.0 41 221
- 1.635477 22 23 cbr 666 ------- 0 11.0.0.0 4.0.0.0 41 221
r 1.635485 0 22 cbr 666 ------- 0 11.0.0.0 4.0.0.0 42 226
+ 1.635485 22 23 cbr 666 ------- 0 11.0.0.0 4.0.0.0 42 226
- 1.635485 22 23 cbr 666 ------- 0 11.0.0.0 4.0.0.0 42 226
r 1.640548 23 25 cbr 666 ------- 0 11.0.0.0 4.0.0.0 40 216
r 1.645478 22 23 cbr 666 ------- 0 11.0.0.0 4.0.0.0 41 221
+ 1.645478 23 25 cbr 666 ------- 0 11.0.0.0 4.0.0.0 41 221
- 1.645478 23 25 cbr 666 ------- 0 11.0.0.0 4.0.0.0 41 221
r 1.645486 22 23 cbr 666 ------- 0 11.0.0.0 4.0.0.0 42 226
+ 1.645486 23 25 cbr 666 ------- 0 11.0.0.0 4.0.0.0 42 226
- 1.645544 23 25 cbr 666 ------- 0 11.0.0.0 4.0.0.0 42 226
+ 1.655073 0 22 cbr 666 ------- 0 11.0.0.0 4.0.0.0 43 231
- 1.655073 0 22 cbr 666 ------- 0 11.0.0.0 4.0.0.0 43 231
r 1.655481 0 22 cbr 666 ------- 0 11.0.0.0 4.0.0.0 43 231
+ 1.655481 22 23 cbr 666 ------- 0 11.0.0.0 4.0.0.0 43 231
- 1.655481 22 23 cbr 666 ------- 0 11.0.0.0 4.0.0.0 43 231
r 1.660544 23 25 cbr 666 ------- 0 11.0.0.0 4.0.0.0 41 221
r 1.660611 23 25 cbr 666 ------- 0 11.0.0.0 4.0.0.0 42 226
r 1.665482 22 23 cbr 666 ------- 0 11.0.0.0 4.0.0.0 43 231
+ 1.665482 23 25 cbr 666 ------- 0 11.0.0.0 4.0.0.0 43 231
- 1.665482 23 25 cbr 666 ------- 0 11.0.0.0 4.0.0.0 43 231
+ 1.675069 0 22 cbr 666 ------- 0 11.0.0.0 4.0.0.0 44 236
- 1.675069 0 22 cbr 666 ------- 0 11.0.0.0 4.0.0.0 44 236
r 1.675478 0 22 cbr 666 ------- 0 11.0.0.0 4.0.0.0 44 236
+ 1.675478 22 23 cbr 666 ------- 0 11.0.0.0 4.0.0.0 44 236
- 1.675478 22 23 cbr 666 ------- 0 11.0.0.0 4.0.0.0 44 236
r 1.680549 23 25 cbr 666 ------- 0 11.0.0.0 4.0.0.0 43 231
r 1.685479 22 23 cbr 666 ------- 0 11.0.0.0 4.0.0.0 44 236
+ 1.685479 23 25 cbr 666 ------- 0 11.0.0.0 4.0.0.0 44 236
- 1.685479 23 25 cbr 666 ------- 0 11.0.0.0 4.0.0.0 44 236
+ 1.695066 0 22 cbr 666 ------- 0 11.0.0.0 4.0.0.0 45 241
- 1.695066 0 22 cbr 666 ------- 0 11.0.0.0 4.0.0.0 45 241
+ 1.695074 0 22 cbr 666 ------- 0 11.0.0.0 4.0.0.0 46 246
- 1.695074 0 22 cbr 666 ------- 0 11.0.0.0 4.0.0.0 46 246
r 1.695474 0 22 cbr 666 ------- 0 11.0.0.0 4.0.0.0 45 241
+ 1.695474 22 23 cbr 666 ------- 0 11.0.0.0 4.0.0.0 45 241
- 1.695474 22 23 cbr 666 ------- 0 11.0.0.0 4.0.0.0 45 241
r 1.695483 0 22 cbr 666 ------- 0 11.0.0.0 4.0.0.0 46 246
+ 1.695483 22 23 cbr 666 ------- 0 11.0.0.0 4.0.0.0 46 246
- 1.695483 22 23 cbr 666 ------- 0 11.0.0.0 4.0.0.0 46 246
r 1.700545 23 25 cbr 666 ------- 0 11.0.0.0 4.0.0.0 44 236
r 1.705475 22 23 cbr 666 ------- 0 11.0.0.0 4.0.0.0 45 241
+ 1.705475 23 25 cbr 666 ------- 0 11.0.0.0 4.0.0.0 45 241
- 1.705475 23 25 cbr 666 ------- 0 11.0.0.0 4.0.0.0 45 241
r 1.705484 22 23 cbr 666 ------- 0 11.0.0.0 4.0.0.0 46 246
+ 1.705484 23 25 cbr 666 ------- 0 11.0.0.0 4.0.0.0 46 246
- 1.705542 23 25 cbr 666 ------- 0 11.0.0.0 4.0.0.0 46 246
+ 1.71507 0 22 cbr 666 ------- 0 11.0.0.0 4.0.0.0 47 251
- 1.71507 0 22 cbr 666 ------- 0 11.0.0.0 4.0.0.0 47 251
r 1.715479 0 22 cbr 666 ------- 0 11.0.0.0 4.0.0.0 47 251
+ 1.715479 22 23 cbr 666 ------- 0 11.0.0.0 4.0.0.0 47 251
- 1.715479 22 23 cbr 666 ------- 0 11.0.0.0 4.0.0.0 47 251
r 1.720542 23 25 cbr 666 ------- 0 11.0.0.0 4.0.0.0 45 241
r 1.720608 23 25 cbr 666 ------- 0 11.0.0.0 4.0.0.0 46 246
r 1.72548 22 23 cbr 666 ------- 0 11.0.0.0 4.0.0.0 47 251
+ 1.72548 23 25 cbr 666 ------- 0 11.0.0.0 4.0.0.0 47 251
- 1.72548 23 25 cbr 666 ------- 0 11.0.0.0 4.0.0.0 47 251
+ 1.735067 0 22 cbr 666 ------- 0 11.0.0.0 4.0.0.0 48 256
- 1.735067 0 22 cbr 666 ------- 0 11.0.0.0 4.0.0.0 48 256
+ 1.735075 0 22 cbr 666 ------- 0 11.0.0.0 4.0.0.0 49 261
- 1.735075 0 22 cbr 666 ------- 0 11.0.0.0 4.0.0.0 49 261
r 1.735475 0 22 cbr 666 ------- 0 11.0.0.0 4.0.0.0 48 256
+ 1.735475 22 23 cbr 666 ------- 0 11.0.0.0 4.0.0.0 48 256
- 1.735475 22 23 cbr 666 ------- 0 11.0.0.0 4.0.0.0 48 256
r 1.735484 0 22 cbr 666 ------- 0 11.0.0.0 4.0.0.0 49 261
+ 1.735484 22 23 cbr 666 ------- 0 11.0.0.0 4.0.0.0 49 261
- 1.735484 22 23 cbr 666 ------- 0 11.0.0.0 4.0.0.0 49 261
r 1.740546 23 25 cbr 666 ------- 0 11.0.0.0 4.0.0.0 47 251
r 1.745476 22 23 cbr 666 ------- 0 11.0.0.0 4.0.0.0 48 256
+ 1.745476 23 25 cbr 666 ------- 0 11.0.0.0 4.0.0.0 48 256
- 1.745476 23 25 cbr 666 ------- 0 11.0.0.0 4.0.0.0 48 256
r 1.745485 22 23 cbr 666 ------- 0 11.0.0.0 4.0.0.0 49 261
+ 1.745485 23 25 cbr 666 ------- 0 11.0.0.0 4.0.0.0 49 261
- 1.745543 23 25 cbr 666 ------- 0 11.0.0.0 4.0.0.0 49 261
+ 1.755071 0 22 cbr 666 ------- 0 11.0.0.0 4.0.0.0 50 266
- 1.755071 0 22 cbr 666 ------- 0 11.0.0.0 4.0.0.0 50 266
r 1.75548 0 22 cbr 666 ------- 0 11.0.0.0 4.0.0.0 50 266
+ 1.75548 22 23 cbr 666 ------- 0 11.0.0.0 4.0.0.0 50 266
- 1.75548 22 23 cbr 666 ------- 0 11.0.0.0 4.0.0.0 50 266
r 1.760543 23 25 cbr 666 ------- 0 11.0.0.0 4.0.0.0 48 256
r 1.760609 23 25 cbr 666 ------- 0 11.0.0.0 4.0.0.0 49 261
r 1.765481 22 23 cbr 666 ------- 0 11.0.0.0 4.0.0.0 50 266
+ 1.765481 23 25 cbr 666 ------- 0 11.0.0.0 4.0.0.0 50 266
- 1.765481 23 25 cbr 666 ------- 0 11.0.0.0 4.0.0.0 50 266
+ 1.775068 0 22 cbr 666 ------- 0 11.0.0.0 4.0.0.0 51 272
- 1.775068 0 22 cbr 666 ------- 0 11.0.0.0 4.0.0.0 51 272
+ 1.775076 0 22 cbr 666 ------- 0 11.0.0.0 4.0.0.0 52 278
- 1.775076 0 22 cbr 666 ------- 0 11.0.0.0 4.0.0.0 52 278
r 1.775476 0 22 cbr 666 ------- 0 11.0.0.0 4.0.0.0 51 272
+ 1.775476 22 23 cbr 666 ------- 0 11.0.0.0 4.0.0.0 51 272
- 1.775476 22 23 cbr 666 ------- 0 11.0.0.0 4.0.0.0 51 272
r 1.775485 0 22 cbr 666 ------- 0 11.0.0.0 4.0.0.0 52 278
+ 1.775485 22 23 cbr 666 ------- 0 11.0.0.0 4.0.0.0 52 278
- 1.775485 22 23 cbr 666 ------- 0 11.0.0.0 4.0.0.0 52 278
r 1.780547 23 25 cbr 666 ------- 0 11.0.0.0 4.0.0.0 50 266
r 1.785477 22 23 cbr 666 ------- 0 11.0.0.0 4.0.0.0 51 272
+ 1.785477 23 25 cbr 666 ------- 0 11.0.0.0 4.0.0.0 51 272
- 1.785477 23 25 cbr 666 ------- 0 11.0.0.0 4.0.0.0 51 272
r 1.785486 22 23 cbr 666 ------- 0 11.0.0.0 4.0.0.0 52 278
+ 1.785486 23 25 cbr 666 ------- 0 11.0.0.0 4.0.0.0 52 278
- 1.785544 23 25 cbr 666 ------- 0 11.0.0.0 4.0.0.0 52 278
+ 1.795072 0 22 cbr 666 ------- 0 11.0.0.0 4.0.0.0 53 283
- 1.795072 0 22 cbr 666 ------- 0 11.0.0.0 4.0.0.0 53 283
r 1.795481 0 22 cbr 666 ------- 0 11.0.0.0 4.0.0.0 53 283
+ 1.795481 22 23 cbr 666 ------- 0 11.0.0.0 4.0.0.0 53 283
- 1.795481 22 23 cbr 666 ------- 0 11.0.0.0 4.0.0.0 53 283
r 1.800544 23 25 cbr 666 ------- 0 11.0.0.0 4.0.0.0 51 272
r 1.80061 23 25 cbr 666 ------- 0 11.0.0.0 4.0.0.0 52 278
r 1.805482 22 23 cbr 666 ------- 0 11.0.0.0 4.0.0.0 53 283
+ 1.805482 23 25 cbr 666 ------- 0 11.0.0.0 4.0.0.0 53 283
- 1.805482 23 25 cbr 666 ------- 0 11.0.0.0 4.0.0.0 53 283
+ 1.815069 0 22 cbr 666 ------- 0 11.0.0.0 4.0.0.0 54 289
- 1.815069 0 22 cbr 666 ------- 0 11.0.0.0 4.0.0.0 54 289
+ 1.815077 0 22 cbr 666 ------- 0 11.0.0.0 4.0.0.0 55 294
- 1.815077 0 22 cbr 666 ------- 0 11.0.0.0 4.0.0.0 55 294
r 1.815477 0 22 cbr 666 ------- 0 11.0.0.0 4.0.0.0 54 289
+ 1.815477 22 23 cbr 666 ------- 0 11.0.0.0 4.0.0.0 54 289
- 1.815477 22 23 cbr 666 ------- 0 11.0.0.0 4.0.0.0 54 289
r 1.815486 0 22 cbr 666 ------- 0 11.0.0.0 4.0.0.0 55 294
+ 1.815486 22 23 cbr 666 ------- 0 11.0.0.0 4.0.0.0 55 294
- 1.815486 22 23 cbr 666 ------- 0 11.0.0.0 4.0.0.0 55 294
r 1.820548 23 25 cbr 666 ------- 0 11.0.0.0 4.0.0.0 53 283
r 1.825478 22 23 cbr 666 ------- 0 11.0.0.0 4.0.0.0 54 289
+ 1.825478 23 25 cbr 666 ------- 0 11.0.0.0 4.0.0.0 54 289
- 1.825478 23 25 cbr 666 ------- 0 11.0.0.0 4.0.0.0 54 289
r 1.825487 22 23 cbr 666 ------- 0 11.0.0.0 4.0.0.0 55 294
+ 1.825487 23 25 cbr 666 ------- 0 11.0.0.0 4.0.0.0 55 294
- 1.825545 23 25 cbr 666 ------- 0 11.0.0.0 4.0.0.0 55 294
+ 1.835073 0 22 cbr 666 ------- 0 11.0.0.0 4.0.0.0 56 299
- 1.835073 0 22 cbr 666 ------- 0 11.0.0.0 4.0.0.0 56 299
r 1.835482 0 22 cbr 666 ------- 0 11.0.0.0 4.0.0.0 56 299
+ 1.835482 22 23 cbr 666 ------- 0 11.0.0.0 4.0.0.0 56 299
- 1.835482 22 23 cbr 666 ------- 0 11.0.0.0 4.0.0.0 56 299
r 1.840545 23 25 cbr 666 ------- 0 11.0.0.0 4.0.0.0 54 289
r 1.840611 23 25 cbr 666 ------- 0 11.0.0.0 4.0.0.0 55 294
r 1.845483 22 23 cbr 666 ------- 0 11.0.0.0 4.0.0.0 56 299
+ 1.845483 23 25 cbr 666 ------- 0 11.0.0.0 4.0.0.0 56 299
- 1.845483 23 25 cbr 666 ------- 0 11.0.0.0 4.0.0.0 56 299
+ 1.85507 0 22 cbr 666 ------- 0 11.0.0.0 4.0.0.0 57 305
- 1.85507 0 22 cbr 666 ------- 0 11.0.0.0 4.0.0.0 57 305
r 1.855478 0 22 cbr 666 ------- 0 11.0.0.0 4.0.0.0 57 305
+ 1.855478 22 23 cbr 666 ------- 0 11.0.0.0 4.0.0.0 57 305