V -t * -v 1.0a5 -a 0
W -t * -x 800 -y 800
A -t * -n 3 -p 0 -o 0xffffffff -c 31 -a 1
A -t * -h 1 -m 1023 -s 22
A -t * -h 2 -m 2047 -s 11
A -t * -h 3 -m 2047 -s 0
c -t * -i 1 -n Blue
c -t * -i 2 -n Red
n -t * -a 0.0.3 -s 4 -S UP -v circle -c black -i black -x 100 -y 150 -Z 0
n -t * -a 0.0.0 -s 0 -S UP -v circle -c black -i black -x 200 -y 100 -Z 0
n -t * -a 4.0.0 -s 10 -S UP -v circle -c black -i black -x 200 -y 50 -Z 0
n -t * -a 1.0.0 -s 5 -S UP -v circle -c black -i black -x 300 -y 100 -Z 0
n -t * -a 0.0.1 -s 1 -S UP -v circle -c black -i black -x 100 -y 100 -Z 0
n -t * -a 2.0.0 -s 6 -S UP -v circle -c black -i black -x 400 -y 100 -Z 0
n -t * -a 0.0.2 -s 2 -S UP -v circle -c black -i black -x 100 -y 50 -Z 0
n -t * -a 3.0.0 -s 7 -S UP -v circle -c black -i black -x 500 -y 100 -Z 0
n -t * -a 0.0.3 -s 3 -S UP -v circle -c black -i black -x 50 -y 100 -Z 0
l -t * -s 1 -d 0 -S UP -r 622000000 -D 0.014999999999999999 -c black
l -t * -s 0 -d 5 -S UP -r 622000000 -D 0.00040000000000000002 -c black
l -t * -s 5 -d 6 -S UP -r 4976000000 -D 0.01 -c black
l -t * -s 6 -d 7 -S UP -r 80000000 -D 0.014999999999999999 -c black
l -t * -s 10 -d 0 -S UP -r 80000000 -D 0.014999999999999999 -c black
n -t 0.000000 -s 11 -x 200.000000 -y 50.000000 -U 49.794660 -V 4.526787 -T 11.045361
n -t 0.000000 -s 12 -x 250.000000 -y 50.000000 -U 49.827288 -V 4.152274 -T 12.041595
+ -t 0.100083958 -s 10 -d -1 -p CM8 -e 64 -c 2 -a 0 -i 0 -k MAC 
- -t 0.100083958 -s 10 -d -1 -p CM8 -e 64 -c 2 -a 0 -i 0 -k MAC
h -t 0.100083958 -s 10 -d -1 -p CM8 -e 64 -c 2 -a 0 -i 0 -k MAC
r -t 0.100305065 -s 11 -d -1 -p CM8 -e 64 -c 2 -a 0 -i 0 -k MAC
r -t 0.100305232 -s 12 -d -1 -p CM8 -e 64 -c 2 -a 0 -i 0 -k MAC
+ -t 0.100755065 -s 11 -d -1 -p UNKN -e 44 -c 2 -a 0 -i 0 -k MAC 
- -t 0.100755065 -s 11 -d -1 -p UNKN -e 44 -c 2 -a 0 -i 0 -k MAC
h -t 0.100755065 -s 11 -d -1 -p UNKN -e 44 -c 2 -a 0 -i 0 -k MAC
r -t 0.100961628 -s 10 -d -1 -p UNKN -e 44 -c 2 -a 0 -i 0 -k MAC
d -t 0.100961777 -s 12 -d -1 -p UNKN -e 44 -c 2 -a 0 -i 0 -k MAC
+ -t 0.100971628 -s 10 -d -1 -p ACK -e 38 -c 2 -a 0 -i 0 -k MAC 
- -t 0.100971628 -s 10 -d -1 -p ACK -e 38 -c 2 -a 0 -i 0 -k MAC
h -t 0.100971628 -s 10 -d -1 -p ACK -e 38 -c 2 -a 0 -i 0 -k MAC
r -t 0.101173826 -s 11 -d -1 -p ACK -e 38 -c 2 -a 0 -i 0 -k MAC
+ -t 0.101243809 -s 10 -d -1 -p CM1 -e 44 -c 2 -a 0 -i 0 -k MAC 
- -t 0.101243809 -s 10 -d -1 -p CM1 -e 44 -c 2 -a 0 -i 0 -k MAC
h -t 0.101243809 -s 10 -d -1 -p CM1 -e 44 -c 2 -a 0 -i 0 -k MAC
r -t 0.101450372 -s 11 -d -1 -p CM1 -e 44 -c 2 -a 0 -i 0 -k MAC
d -t 0.101450538 -s 12 -d -1 -p CM1 -e 44 -c 2 -a 0 -i 0 -k MAC
+ -t 0.101460372 -s 11 -d -1 -p ACK -e 38 -c 2 -a 0 -i 0 -k MAC 
- -t 0.101460372 -s 11 -d -1 -p ACK -e 38 -c 2 -a 0 -i 0 -k MAC
h -t 0.101460372 -s 11 -d -1 -p ACK -e 38 -c 2 -a 0 -i 0 -k MAC
r -t 0.101662570 -s 10 -d -1 -p ACK -e 38 -c 2 -a 0 -i 0 -k MAC
+ -t 0.101912720 -s 12 -d -1 -p UNKN -e 44 -c 2 -a 0 -i 0 -k MAC 
- -t 0.101912720 -s 12 -d -1 -p UNKN -e 44 -c 2 -a 0 -i 0 -k MAC
h -t 0.101912720 -s 12 -d -1 -p UNKN -e 44 -c 2 -a 0 -i 0 -k MAC
d -t 0.102119432 -s 11 -d -1 -p UNKN -e 44 -c 2 -a 0 -i 0 -k MAC
r -t 0.102119449 -s 10 -d -1 -p UNKN -e 44 -c 2 -a 0 -i 0 -k MAC
+ -t 0.102129449 -s 10 -d -1 -p ACK -e 38 -c 2 -a 0 -i 0 -k MAC 
- -t 0.102129449 -s 10 -d -1 -p ACK -e 38 -c 2 -a 0 -i 0 -k MAC
h -t 0.102129449 -s 10 -d -1 -p ACK -e 38 -c 2 -a 0 -i 0 -k MAC
r -t 0.102331815 -s 12 -d -1 -p ACK -e 38 -c 2 -a 0 -i 0 -k MAC
+ -t 0.102681631 -s 10 -d -1 -p CM1 -e 44 -c 2 -a 0 -i 0 -k MAC 
- -t 0.102681631 -s 10 -d -1 -p CM1 -e 44 -c 2 -a 0 -i 0 -k MAC
h -t 0.102681631 -s 10 -d -1 -p CM1 -e 44 -c 2 -a 0 -i 0 -k MAC
d -t 0.102888194 -s 11 -d -1 -p CM1 -e 44 -c 2 -a 0 -i 0 -k MAC
r -t 0.102888360 -s 12 -d -1 -p CM1 -e 44 -c 2 -a 0 -i 0 -k MAC
+ -t 0.102898360 -s 12 -d -1 -p ACK -e 38 -c 2 -a 0 -i 0 -k MAC 
- -t 0.102898360 -s 12 -d -1 -p ACK -e 38 -c 2 -a 0 -i 0 -k MAC
h -t 0.102898360 -s 12 -d -1 -p ACK -e 38 -c 2 -a 0 -i 0 -k MAC
r -t 0.103100726 -s 10 -d -1 -p ACK -e 38 -c 2 -a 0 -i 0 -k MAC
+ -t 0.200083958 -s 10 -d -1 -p CM8 -e 64 -c 2 -a 0 -i 0 -k MAC 
- -t 0.200083958 -s 10 -d -1 -p CM8 -e 64 -c 2 -a 0 -i 0 -k MAC
h -t 0.200083958 -s 10 -d -1 -p CM8 -e 64 -c 2 -a 0 -i 0 -k MAC
r -t 0.200305082 -s 11 -d -1 -p CM8 -e 64 -c 2 -a 0 -i 0 -k MAC
r -t 0.200305249 -s 12 -d -1 -p CM8 -e 64 -c 2 -a 0 -i 0 -k MAC
+ -t 0.300083958 -s 10 -d -1 -p CM8 -e 64 -c 2 -a 0 -i 0 -k MAC 
- -t 0.300083958 -s 10 -d -1 -p CM8 -e 64 -c 2 -a 0 -i 0 -k MAC
h -t 0.300083958 -s 10 -d -1 -p CM8 -e 64 -c 2 -a 0 -i 0 -k MAC
r -t 0.300305099 -s 11 -d -1 -p CM8 -e 64 -c 2 -a 0 -i 0 -k MAC
r -t 0.300305265 -s 12 -d -1 -p CM8 -e 64 -c 2 -a 0 -i 0 -k MAC
+ -t 0.400083958 -s 10 -d -1 -p CM8 -e 64 -c 2 -a 0 -i 0 -k MAC 
- -t 0.400083958 -s 10 -d -1 -p CM8 -e 64 -c 2 -a 0 -i 0 -k MAC
h -t 0.400083958 -s 10 -d -1 -p CM8 -e 64 -c 2 -a 0 -i 0 -k MAC
r -t 0.400305115 -s 11 -d -1 -p CM8 -e 64 -c 2 -a 0 -i 0 -k MAC
r -t 0.400305282 -s 12 -d -1 -p CM8 -e 64 -c 2 -a 0 -i 0 -k MAC
+ -t 0.500083958 -s 10 -d -1 -p CM8 -e 64 -c 2 -a 0 -i 0 -k MAC 
- -t 0.500083958 -s 10 -d -1 -p CM8 -e 64 -c 2 -a 0 -i 0 -k MAC
h -t 0.500083958 -s 10 -d -1 -p CM8 -e 64 -c 2 -a 0 -i 0 -k MAC
r -t 0.500305132 -s 11 -d -1 -p CM8 -e 64 -c 2 -a 0 -i 0 -k MAC
r -t 0.500305298 -s 12 -d -1 -p CM8 -e 64 -c 2 -a 0 -i 0 -k MAC
+ -t 0.500726298 -s 12 -d -1 -p RTS -e 44 -c 2 -a 0 -i 0 -k MAC 
- -t 0.500726298 -s 12 -d -1 -p RTS -e 44 -c 2 -a 0 -i 0 -k MAC
h -t 0.500726298 -s 12 -d -1 -p RTS -e 44 -c 2 -a 0 -i 0 -k MAC
r -t 0.500933094 -s 10 -d -1 -p RTS -e 44 -c 2 -a 0 -i 0 -k MAC
+ -t 0.500943094 -s 10 -d -1 -p CTS -e 38 -c 2 -a 0 -i 0 -k MAC 
- -t 0.500943094 -s 10 -d -1 -p CTS -e 38 -c 2 -a 0 -i 0 -k MAC
h -t 0.500943094 -s 10 -d -1 -p CTS -e 38 -c 2 -a 0 -i 0 -k MAC
r -t 0.501145526 -s 12 -d -1 -p CTS -e 38 -c 2 -a 0 -i 0 -k MAC
+ -t 0.501155526 -s 12 -d -1 -p ARP -e 88 -c 2 -a 0 -i 0 -k MAC 
- -t 0.501155526 -s 12 -d -1 -p ARP -e 88 -c 2 -a 0 -i 0 -k MAC
h -t 0.501155526 -s 12 -d -1 -p ARP -e 88 -c 2 -a 0 -i 0 -k MAC
r -t 0.501394321 -s 10 -d -1 -p ARP -e 28 -c 2 -a 0 -i 0 -k MAC
r -t 0.501394321 -s 10 -d -1 -p ARP -e 28 -c 2 -a 0 -i 0 -k MAC
+ -t 0.501404321 -s 10 -d -1 -p ACK -e 38 -c 2 -a 0 -i 0 -k MAC 
- -t 0.501404321 -s 10 -d -1 -p ACK -e 38 -c 2 -a 0 -i 0 -k MAC
h -t 0.501404321 -s 10 -d -1 -p ACK -e 38 -c 2 -a 0 -i 0 -k MAC
r -t 0.501606753 -s 12 -d -1 -p ACK -e 38 -c 2 -a 0 -i 0 -k MAC
+ -t 0.501796586 -s 11 -d -1 -p RTS -e 44 -c 2 -a 0 -i 0 -k MAC 
- -t 0.501796586 -s 11 -d -1 -p RTS -e 44 -c 2 -a 0 -i 0 -k MAC
h -t 0.501796586 -s 11 -d -1 -p RTS -e 44 -c 2 -a 0 -i 0 -k MAC
r -t 0.502003216 -s 10 -d -1 -p RTS -e 44 -c 2 -a 0 -i 0 -k MAC
+ -t 0.502013216 -s 10 -d -1 -p CTS -e 38 -c 2 -a 0 -i 0 -k MAC 
- -t 0.502013216 -s 10 -d -1 -p CTS -e 38 -c 2 -a 0 -i 0 -k MAC
h -t 0.502013216 -s 10 -d -1 -p CTS -e 38 -c 2 -a 0 -i 0 -k MAC
r -t 0.502215481 -s 11 -d -1 -p CTS -e 38 -c 2 -a 0 -i 0 -k MAC
+ -t 0.502225481 -s 11 -d -1 -p ARP -e 88 -c 2 -a 0 -i 0 -k MAC 
- -t 0.502225481 -s 11 -d -1 -p ARP -e 88 -c 2 -a 0 -i 0 -k MAC
h -t 0.502225481 -s 11 -d -1 -p ARP -e 88 -c 2 -a 0 -i 0 -k MAC
r -t 0.502464110 -s 10 -d -1 -p ARP -e 28 -c 2 -a 0 -i 0 -k MAC
r -t 0.502464110 -s 10 -d -1 -p ARP -e 28 -c 2 -a 0 -i 0 -k MAC
+ -t 0.502474110 -s 10 -d -1 -p ACK -e 38 -c 2 -a 0 -i 0 -k MAC 
- -t 0.502474110 -s 10 -d -1 -p ACK -e 38 -c 2 -a 0 -i 0 -k MAC
h -t 0.502474110 -s 10 -d -1 -p ACK -e 38 -c 2 -a 0 -i 0 -k MAC
r -t 0.502676376 -s 11 -d -1 -p ACK -e 38 -c 2 -a 0 -i 0 -k MAC
+ -t 0.502766292 -s 10 -d -1 -p RTS -e 44 -c 2 -a 0 -i 0 -k MAC 
- -t 0.502766292 -s 10 -d -1 -p RTS -e 44 -c 2 -a 0 -i 0 -k MAC
h -t 0.502766292 -s 10 -d -1 -p RTS -e 44 -c 2 -a 0 -i 0 -k MAC
r -t 0.502973088 -s 12 -d -1 -p RTS -e 44 -c 2 -a 0 -i 0 -k MAC
+ -t 0.502983088 -s 12 -d -1 -p CTS -e 38 -c 2 -a 0 -i 0 -k MAC 
- -t 0.502983088 -s 12 -d -1 -p CTS -e 38 -c 2 -a 0 -i 0 -k MAC
h -t 0.502983088 -s 12 -d -1 -p CTS -e 38 -c 2 -a 0 -i 0 -k MAC
r -t 0.503185520 -s 10 -d -1 -p CTS -e 38 -c 2 -a 0 -i 0 -k MAC
+ -t 0.503195520 -s 10 -d -1 -p ARP -e 88 -c 2 -a 0 -i 0 -k MAC 
- -t 0.503195520 -s 10 -d -1 -p ARP -e 88 -c 2 -a 0 -i 0 -k MAC
h -t 0.503195520 -s 10 -d -1 -p ARP -e 88 -c 2 -a 0 -i 0 -k MAC
r -t 0.503434316 -s 12 -d -1 -p ARP -e 28 -c 2 -a 0 -i 0 -k MAC
+ -t 0.503444316 -s 12 -d -1 -p ACK -e 38 -c 2 -a 0 -i 0 -k MAC 
- -t 0.503444316 -s 12 -d -1 -p ACK -e 38 -c 2 -a 0 -i 0 -k MAC
h -t 0.503444316 -s 12 -d -1 -p ACK -e 38 -c 2 -a 0 -i 0 -k MAC
r -t 0.503646748 -s 10 -d -1 -p ACK -e 38 -c 2 -a 0 -i 0 -k MAC
+ -t 0.503976497 -s 12 -d -1 -p RTS -e 44 -c 2 -a 0 -i 0 -k MAC 
- -t 0.503976497 -s 12 -d -1 -p RTS -e 44 -c 2 -a 0 -i 0 -k MAC
h -t 0.503976497 -s 12 -d -1 -p RTS -e 44 -c 2 -a 0 -i 0 -k MAC
d -t 0.504000000 -s 11 -d 10 -p cbr -e 500 -c 2 -a 0 -i 2 -k IFQ
r -t 0.504183293 -s 10 -d -1 -p RTS -e 44 -c 2 -a 0 -i 0 -k MAC
+ -t 0.504193293 -s 10 -d -1 -p CTS -e 38 -c 2 -a 0 -i 0 -k MAC 
- -t 0.504193293 -s 10 -d -1 -p CTS -e 38 -c 2 -a 0 -i 0 -k MAC
h -t 0.504193293 -s 10 -d -1 -p CTS -e 38 -c 2 -a 0 -i 0 -k MAC
r -t 0.504395726 -s 12 -d -1 -p CTS -e 38 -c 2 -a 0 -i 0 -k MAC
+ -t 0.504405726 -s 12 -d 10 -p cbr -e 1060 -c 2 -a 0 -i 3 -k MAC 
- -t 0.504405726 -s 12 -d 10 -p cbr -e 1060 -c 2 -a 0 -i 3 -k MAC
h -t 0.504405726 -s 12 -d 10 -p cbr -e 1060 -c 2 -a 0 -i 3 -k MAC
r -t 0.505351431 -s 10 -d 10 -p cbr -e 1000 -c 2 -a 0 -i 3 -k MAC
+ -t 0.505361431 -s 10 -d -1 -p ACK -e 38 -c 2 -a 0 -i 0 -k MAC 
- -t 0.505361431 -s 10 -d -1 -p ACK -e 38 -c 2 -a 0 -i 0 -k MAC
h -t 0.505361431 -s 10 -d -1 -p ACK -e 38 -c 2 -a 0 -i 0 -k MAC
+ -t 0.50537643080483 -s 10 -d 0 -p cbr -e 1000 -c 0 -i 3 -a 0 -x {6.0.0.0 3.0.0.1 0 ------- null}
- -t 0.50537643080483 -s 10 -d 0 -p cbr -e 1000 -c 0 -i 3 -a 0 -x {6.0.0.0 3.0.0.1 0 ------- null}
h -t 0.50537643080483 -s 10 -d 0 -p cbr -e 1000 -c 0 -i 3 -a 0 -x {6.0.0.0 3.0.0.1 -1 ------- null}
r -t 0.505563863 -s 12 -d -1 -p ACK -e 38 -c 2 -a 0 -i 0 -k MAC
+ -t 0.505633697 -s 11 -d -1 -p RTS -e 44 -c 2 -a 0 -i 0 -k MAC 
- -t 0.505633697 -s 11 -d -1 -p RTS -e 44 -c 2 -a 0 -i 0 -k MAC
h -t 0.505633697 -s 11 -d -1 -p RTS -e 44 -c 2 -a 0 -i 0 -k MAC
r -t 0.505840327 -s 10 -d -1 -p RTS -e 44 -c 2 -a 0 -i 0 -k MAC
+ -t 0.505850327 -s 10 -d -1 -p CTS -e 38 -c 2 -a 0 -i 0 -k MAC 
- -t 0.505850327 -s 10 -d -1 -p CTS -e 38 -c 2 -a 0 -i 0 -k MAC
h -t 0.505850327 -s 10 -d -1 -p CTS -e 38 -c 2 -a 0 -i 0 -k MAC
r -t 0.506052593 -s 11 -d -1 -p CTS -e 38 -c 2 -a 0 -i 0 -k MAC
+ -t 0.506062593 -s 11 -d -1 -p ARP -e 88 -c 2 -a 0 -i 0 -k MAC 
- -t 0.506062593 -s 11 -d -1 -p ARP -e 88 -c 2 -a 0 -i 0 -k MAC
h -t 0.506062593 -s 11 -d -1 -p ARP -e 88 -c 2 -a 0 -i 0 -k MAC
r -t 0.506301223 -s 10 -d -1 -p ARP -e 28 -c 2 -a 0 -i 0 -k MAC
r -t 0.506301223 -s 10 -d -1 -p ARP -e 28 -c 2 -a 0 -i 0 -k MAC
+ -t 0.506311223 -s 10 -d -1 -p ACK -e 38 -c 2 -a 0 -i 0 -k MAC 
- -t 0.506311223 -s 10 -d -1 -p ACK -e 38 -c 2 -a 0 -i 0 -k MAC
h -t 0.506311223 -s 10 -d -1 -p ACK -e 38 -c 2 -a 0 -i 0 -k MAC
r -t 0.506513489 -s 11 -d -1 -p ACK -e 38 -c 2 -a 0 -i 0 -k MAC
+ -t 0.506623404 -s 10 -d -1 -p ARP -e 88 -c 2 -a 0 -i 0 -k MAC 
- -t 0.506623404 -s 10 -d -1 -p ARP -e 88 -c 2 -a 0 -i 0 -k MAC
h -t 0.506623404 -s 10 -d -1 -p ARP -e 88 -c 2 -a 0 -i 0 -k MAC
r -t 0.506862034 -s 11 -d -1 -p ARP -e 28 -c 2 -a 0 -i 0 -k MAC
r -t 0.506862201 -s 12 -d -1 -p ARP -e 28 -c 2 -a 0 -i 0 -k MAC
+ -t 0.507171950 -s 10 -d -1 -p RTS -e 44 -c 2 -a 0 -i 0 -k MAC 
- -t 0.507171950 -s 10 -d -1 -p RTS -e 44 -c 2 -a 0 -i 0 -k MAC
h -t 0.507171950 -s 10 -d -1 -p RTS -e 44 -c 2 -a 0 -i 0 -k MAC
r -t 0.507378580 -s 11 -d -1 -p RTS -e 44 -c 2 -a 0 -i 0 -k MAC
+ -t 0.507388580 -s 11 -d -1 -p CTS -e 38 -c 2 -a 0 -i 0 -k MAC 
- -t 0.507388580 -s 11 -d -1 -p CTS -e 38 -c 2 -a 0 -i 0 -k MAC
h -t 0.507388580 -s 11 -d -1 -p CTS -e 38 -c 2 -a 0 -i 0 -k MAC
r -t 0.507590846 -s 10 -d -1 -p CTS -e 38 -c 2 -a 0 -i 0 -k MAC
+ -t 0.507600846 -s 10 -d -1 -p ARP -e 88 -c 2 -a 0 -i 0 -k MAC 
- -t 0.507600846 -s 10 -d -1 -p ARP -e 88 -c 2 -a 0 -i 0 -k MAC
h -t 0.507600846 -s 10 -d -1 -p ARP -e 88 -c 2 -a 0 -i 0 -k MAC
r -t 0.507839476 -s 11 -d -1 -p ARP -e 28 -c 2 -a 0 -i 0 -k MAC
+ -t 0.507849476 -s 11 -d -1 -p ACK -e 38 -c 2 -a 0 -i 0 -k MAC 
- -t 0.507849476 -s 11 -d -1 -p ACK -e 38 -c 2 -a 0 -i 0 -k MAC
h -t 0.507849476 -s 11 -d -1 -p ACK -e 38 -c 2 -a 0 -i 0 -k MAC
r -t 0.508051743 -s 10 -d -1 -p ACK -e 38 -c 2 -a 0 -i 0 -k MAC
+ -t 0.508121743 -s 10 -d -1 -p ARP -e 88 -c 2 -a 0 -i 0 -k MAC 
- -t 0.508121743 -s 10 -d -1 -p ARP -e 88 -c 2 -a 0 -i 0 -k MAC
h -t 0.508121743 -s 10 -d -1 -p ARP -e 88 -c 2 -a 0 -i 0 -k MAC
r -t 0.508360373 -s 11 -d -1 -p ARP -e 28 -c 2 -a 0 -i 0 -k MAC
r -t 0.508360539 -s 12 -d -1 -p ARP -e 28 -c 2 -a 0 -i 0 -k MAC
+ -t 0.508610288 -s 10 -d -1 -p RTS -e 44 -c 2 -a 0 -i 0 -k MAC 
- -t 0.508610288 -s 10 -d -1 -p RTS -e 44 -c 2 -a 0 -i 0 -k MAC
h -t 0.508610288 -s 10 -d -1 -p RTS -e 44 -c 2 -a 0 -i 0 -k MAC
r -t 0.508816918 -s 11 -d -1 -p RTS -e 44 -c 2 -a 0 -i 0 -k MAC
+ -t 0.508826918 -s 11 -d -1 -p CTS -e 38 -c 2 -a 0 -i 0 -k MAC 
- -t 0.508826918 -s 11 -d -1 -p CTS -e 38 -c 2 -a 0 -i 0 -k MAC
h -t 0.508826918 -s 11 -d -1 -p CTS -e 38 -c 2 -a 0 -i 0 -k MAC
r -t 0.509029185 -s 10 -d -1 -p CTS -e 38 -c 2 -a 0 -i 0 -k MAC
+ -t 0.509039185 -s 10 -d -1 -p ARP -e 88 -c 2 -a 0 -i 0 -k MAC 
- -t 0.509039185 -s 10 -d -1 -p ARP -e 88 -c 2 -a 0 -i 0 -k MAC
h -t 0.509039185 -s 10 -d -1 -p ARP -e 88 -c 2 -a 0 -i 0 -k MAC
r -t 0.509277815 -s 11 -d -1 -p ARP -e 28 -c 2 -a 0 -i 0 -k MAC
+ -t 0.509287815 -s 11 -d -1 -p ACK -e 38 -c 2 -a 0 -i 0 -k MAC 
- -t 0.509287815 -s 11 -d -1 -p ACK -e 38 -c 2 -a 0 -i 0 -k MAC
h -t 0.509287815 -s 11 -d -1 -p ACK -e 38 -c 2 -a 0 -i 0 -k MAC
r -t 0.509490082 -s 10 -d -1 -p ACK -e 38 -c 2 -a 0 -i 0 -k MAC
+ -t 0.509899997 -s 11 -d -1 -p RTS -e 44 -c 2 -a 0 -i 0 -k MAC 
- -t 0.509899997 -s 11 -d -1 -p RTS -e 44 -c 2 -a 0 -i 0 -k MAC
h -t 0.509899997 -s 11 -d -1 -p RTS -e 44 -c 2 -a 0 -i 0 -k MAC
r -t 0.510106628 -s 10 -d -1 -p RTS -e 44 -c 2 -a 0 -i 0 -k MAC
+ -t 0.510116628 -s 10 -d -1 -p CTS -e 38 -c 2 -a 0 -i 0 -k MAC 
- -t 0.510116628 -s 10 -d -1 -p CTS -e 38 -c 2 -a 0 -i 0 -k MAC
h -t 0.510116628 -s 10 -d -1 -p CTS -e 38 -c 2 -a 0 -i 0 -k MAC
r -t 0.510318894 -s 11 -d -1 -p CTS -e 38 -c 2 -a 0 -i 0 -k MAC
+ -t 0.510328894 -s 11 -d 10 -p cbr -e 560 -c 2 -a 0 -i 4 -k MAC 
- -t 0.510328894 -s 11 -d 10 -p cbr -e 560 -c 2 -a 0 -i 4 -k MAC
h -t 0.510328894 -s 11 -d 10 -p cbr -e 560 -c 2 -a 0 -i 4 -k MAC
r -t 0.510910798 -s 10 -d 10 -p cbr -e 500 -c 2 -a 0 -i 4 -k MAC
+ -t 0.510920798 -s 10 -d -1 -p ACK -e 38 -c 2 -a 0 -i 0 -k MAC 
- -t 0.510920798 -s 10 -d -1 -p ACK -e 38 -c 2 -a 0 -i 0 -k MAC
h -t 0.510920798 -s 10 -d -1 -p ACK -e 38 -c 2 -a 0 -i 0 -k MAC
+ -t 0.510935797579812 -s 10 -d 0 -p cbr -e 500 -c 0 -i 4 -a 0 -x {5.0.0.0 3.0.0.0 1 ------- null}
- -t 0.510935797579812 -s 10 -d 0 -p cbr -e 500 -c 0 -i 4 -a 0 -x {5.0.0.0 3.0.0.0 1 ------- null}
h -t 0.510935797579812 -s 10 -d 0 -p cbr -e 500 -c 0 -i 4 -a 0 -x {5.0.0.0 3.0.0.0 -1 ------- null}
r -t 0.511123065 -s 11 -d -1 -p ACK -e 38 -c 2 -a 0 -i 0 -k MAC
+ -t 0.511212979 -s 10 -d -1 -p ARP -e 88 -c 2 -a 0 -i 0 -k MAC 
- -t 0.511212979 -s 10 -d -1 -p ARP -e 88 -c 2 -a 0 -i 0 -k MAC
h -t 0.511212979 -s 10 -d -1 -p ARP -e 88 -c 2 -a 0 -i 0 -k MAC
r -t 0.511451610 -s 11 -d -1 -p ARP -e 28 -c 2 -a 0 -i 0 -k MAC
r -t 0.511451777 -s 12 -d -1 -p ARP -e 28 -c 2 -a 0 -i 0 -k MAC
+ -t 0.511521777 -s 12 -d -1 -p RTS -e 44 -c 2 -a 0 -i 0 -k MAC 
- -t 0.511521777 -s 12 -d -1 -p RTS -e 44 -c 2 -a 0 -i 0 -k MAC
h -t 0.511521777 -s 12 -d -1 -p RTS -e 44 -c 2 -a 0 -i 0 -k MAC
r -t 0.511728574 -s 10 -d -1 -p RTS -e 44 -c 2 -a 0 -i 0 -k MAC
+ -t 0.511738574 -s 10 -d -1 -p CTS -e 38 -c 2 -a 0 -i 0 -k MAC 
- -t 0.511738574 -s 10 -d -1 -p CTS -e 38 -c 2 -a 0 -i 0 -k MAC
h -t 0.511738574 -s 10 -d -1 -p CTS -e 38 -c 2 -a 0 -i 0 -k MAC
r -t 0.511941007 -s 12 -d -1 -p CTS -e 38 -c 2 -a 0 -i 0 -k MAC
+ -t 0.511951007 -s 12 -d 10 -p cbr -e 1060 -c 2 -a 0 -i 5 -k MAC 
- -t 0.511951007 -s 12 -d 10 -p cbr -e 1060 -c 2 -a 0 -i 5 -k MAC
h -t 0.511951007 -s 12 -d 10 -p cbr -e 1060 -c 2 -a 0 -i 5 -k MAC
r -t 0.512896714 -s 10 -d 10 -p cbr -e 1000 -c 2 -a 0 -i 5 -k MAC
+ -t 0.512906714 -s 10 -d -1 -p ACK -e 38 -c 2 -a 0 -i 0 -k MAC 
- -t 0.512906714 -s 10 -d -1 -p ACK -e 38 -c 2 -a 0 -i 0 -k MAC
h -t 0.512906714 -s 10 -d -1 -p ACK -e 38 -c 2 -a 0 -i 0 -k MAC
+ -t 0.512921713628413 -s 10 -d 0 -p cbr -e 1000 -c 0 -i 5 -a 0 -x {6.0.0.0 3.0.0.1 1 ------- null}
- -t 0.512921713628413 -s 10 -d 0 -p cbr -e 1000 -c 0 -i 5 -a 0 -x {6.0.0.0 3.0.0.1 1 ------- null}
h -t 0.512921713628413 -s 10 -d 0 -p cbr -e 1000 -c 0 -i 5 -a 0 -x {6.0.0.0 3.0.0.1 -1 ------- null}
r -t 0.513109147 -s 12 -d -1 -p ACK -e 38 -c 2 -a 0 -i 0 -k MAC
+ -t 0.513638981 -s 11 -d -1 -p RTS -e 44 -c 2 -a 0 -i 0 -k MAC 
- -t 0.513638981 -s 11 -d -1 -p RTS -e 44 -c 2 -a 0 -i 0 -k MAC
h -t 0.513638981 -s 11 -d -1 -p RTS -e 44 -c 2 -a 0 -i 0 -k MAC
r -t 0.513845612 -s 10 -d -1 -p RTS -e 44 -c 2 -a 0 -i 0 -k MAC
+ -t 0.513855612 -s 10 -d -1 -p CTS -e 38 -c 2 -a 0 -i 0 -k MAC 
- -t 0.513855612 -s 10 -d -1 -p CTS -e 38 -c 2 -a 0 -i 0 -k MAC
h -t 0.513855612 -s 10 -d -1 -p CTS -e 38 -c 2 -a 0 -i 0 -k MAC
r -t 0.514057879 -s 11 -d -1 -p CTS -e 38 -c 2 -a 0 -i 0 -k MAC
+ -t 0.514067879 -s 11 -d 10 -p cbr -e 560 -c 2 -a 0 -i 6 -k MAC 
- -t 0.514067879 -s 11 -d 10 -p cbr -e 560 -c 2 -a 0 -i 6 -k MAC
h -t 0.514067879 -s 11 -d 10 -p cbr -e 560 -c 2 -a 0 -i 6 -k MAC
r -t 0.514649783 -s 10 -d 10 -p cbr -e 500 -c 2 -a 0 -i 6 -k MAC
+ -t 0.514659783 -s 10 -d -1 -p ACK -e 38 -c 2 -a 0 -i 0 -k MAC 
- -t 0.514659783 -s 10 -d -1 -p ACK -e 38 -c 2 -a 0 -i 0 -k MAC
h -t 0.514659783 -s 10 -d -1 -p ACK -e 38 -c 2 -a 0 -i 0 -k MAC
+ -t 0.514674783312671 -s 10 -d 0 -p cbr -e 500 -c 0 -i 6 -a 0 -x {5.0.0.0 3.0.0.0 2 ------- null}
- -t 0.514674783312671 -s 10 -d 0 -p cbr -e 500 -c 0 -i 6 -a 0 -x {5.0.0.0 3.0.0.0 2 ------- null}
h -t 0.514674783312671 -s 10 -d 0 -p cbr -e 500 -c 0 -i 6 -a 0 -x {5.0.0.0 3.0.0.0 -1 ------- null}
r -t 0.514862051 -s 11 -d -1 -p ACK -e 38 -c 2 -a 0 -i 0 -k MAC
+ -t 0.515172051 -s 11 -d -1 -p RTS -e 44 -c 2 -a 0 -i 0 -k MAC 
- -t 0.515172051 -s 11 -d -1 -p RTS -e 44 -c 2 -a 0 -i 0 -k MAC
h -t 0.515172051 -s 11 -d -1 -p RTS -e 44 -c 2 -a 0 -i 0 -k MAC
r -t 0.515378682 -s 10 -d -1 -p RTS -e 44 -c 2 -a 0 -i 0 -k MAC
+ -t 0.515388682 -s 10 -d -1 -p CTS -e 38 -c 2 -a 0 -i 0 -k MAC 
- -t 0.515388682 -s 10 -d -1 -p CTS -e 38 -c 2 -a 0 -i 0 -k MAC
h -t 0.515388682 -s 10 -d -1 -p CTS -e 38 -c 2 -a 0 -i 0 -k MAC
r -t 0.515590950 -s 11 -d -1 -p CTS -e 38 -c 2 -a 0 -i 0 -k MAC
+ -t 0.515600950 -s 11 -d 10 -p cbr -e 560 -c 2 -a 0 -i 7 -k MAC 
- -t 0.515600950 -s 11 -d 10 -p cbr -e 560 -c 2 -a 0 -i 7 -k MAC
h -t 0.515600950 -s 11 -d 10 -p cbr -e 560 -c 2 -a 0 -i 7 -k MAC
r -t 0.516182854 -s 10 -d 10 -p cbr -e 500 -c 2 -a 0 -i 7 -k MAC
+ -t 0.516192854 -s 10 -d -1 -p ACK -e 38 -c 2 -a 0 -i 0 -k MAC 
- -t 0.516192854 -s 10 -d -1 -p ACK -e 38 -c 2 -a 0 -i 0 -k MAC
h -t 0.516192854 -s 10 -d -1 -p ACK -e 38 -c 2 -a 0 -i 0 -k MAC
+ -t 0.516207854055642 -s 10 -d 0 -p cbr -e 500 -c 0 -i 7 -a 0 -x {5.0.0.0 3.0.0.0 3 ------- null}
- -t 0.516207854055642 -s 10 -d 0 -p cbr -e 500 -c 0 -i 7 -a 0 -x {5.0.0.0 3.0.0.0 3 ------- null}
h -t 0.516207854055642 -s 10 -d 0 -p cbr -e 500 -c 0 -i 7 -a 0 -x {5.0.0.0 3.0.0.0 -1 ------- null}
r -t 0.516395122 -s 11 -d -1 -p ACK -e 38 -c 2 -a 0 -i 0 -k MAC
+ -t 0.516705288 -s 12 -d -1 -p RTS -e 44 -c 2 -a 0 -i 0 -k MAC 
- -t 0.516705288 -s 12 -d -1 -p RTS -e 44 -c 2 -a 0 -i 0 -k MAC
h -t 0.516705288 -s 12 -d -1 -p RTS -e 44 -c 2 -a 0 -i 0 -k MAC
r -t 0.516912086 -s 10 -d -1 -p RTS -e 44 -c 2 -a 0 -i 0 -k MAC
+ -t 0.516922086 -s 10 -d -1 -p CTS -e 38 -c 2 -a 0 -i 0 -k MAC 
- -t 0.516922086 -s 10 -d -1 -p CTS -e 38 -c 2 -a 0 -i 0 -k MAC
h -t 0.516922086 -s 10 -d -1 -p CTS -e 38 -c 2 -a 0 -i 0 -k MAC
r -t 0.517124521 -s 12 -d -1 -p CTS -e 38 -c 2 -a 0 -i 0 -k MAC
+ -t 0.517134521 -s 12 -d 10 -p cbr -e 1060 -c 2 -a 0 -i 8 -k MAC 
- -t 0.517134521 -s 12 -d 10 -p cbr -e 1060 -c 2 -a 0 -i 8 -k MAC
h -t 0.517134521 -s 12 -d 10 -p cbr -e 1060 -c 2 -a 0 -i 8 -k MAC
r -t 0.518080228 -s 10 -d 10 -p cbr -e 1000 -c 2 -a 0 -i 8 -k MAC
+ -t 0.518090228 -s 10 -d -1 -p ACK -e 38 -c 2 -a 0 -i 0 -k MAC 
- -t 0.518090228 -s 10 -d -1 -p ACK -e 38 -c 2 -a 0 -i 0 -k MAC
h -t 0.518090228 -s 10 -d -1 -p ACK -e 38 -c 2 -a 0 -i 0 -k MAC
+ -t 0.518105228066274 -s 10 -d 0 -p cbr -e 1000 -c 0 -i 8 -a 0 -x {6.0.0.0 3.0.0.1 2 ------- null}
- -t 0.518105228066274 -s 10 -d 0 -p cbr -e 1000 -c 0 -i 8 -a 0 -x {6.0.0.0 3.0.0.1 2 ------- null}
h -t 0.518105228066274 -s 10 -d 0 -p cbr -e 1000 -c 0 -i 8 -a 0 -x {6.0.0.0 3.0.0.1 -1 ------- null}
r -t 0.518292663 -s 12 -d -1 -p ACK -e 38 -c 2 -a 0 -i 0 -k MAC
+ -t 0.518462496 -s 11 -d -1 -p RTS -e 44 -c 2 -a 0 -i 0 -k MAC 
- -t 0.518462496 -s 11 -d -1 -p RTS -e 44 -c 2 -a 0 -i 0 -k MAC
h -t 0.518462496 -s 11 -d -1 -p RTS -e 44 -c 2 -a 0 -i 0 -k MAC
r -t 0.518669128 -s 10 -d -1 -p RTS -e 44 -c 2 -a 0 -i 0 -k MAC
+ -t 0.518679128 -s 10 -d -1 -p CTS -e 38 -c 2 -a 0 -i 0 -k MAC 
- -t 0.518679128 -s 10 -d -1 -p CTS -e 38 -c 2 -a 0 -i 0 -k MAC
h -t 0.518679128 -s 10 -d -1 -p CTS -e 38 -c 2 -a 0 -i 0 -k MAC
r -t 0.518881396 -s 11 -d -1 -p CTS -e 38 -c 2 -a 0 -i 0 -k MAC
+ -t 0.518891396 -s 11 -d 10 -p cbr -e 560 -c 2 -a 0 -i 9 -k MAC 
- -t 0.518891396 -s 11 -d 10 -p cbr -e 560 -c 2 -a 0 -i 9 -k MAC
h -t 0.518891396 -s 11 -d 10 -p cbr -e 560 -c 2 -a 0 -i 9 -k MAC
r -t 0.519473301 -s 10 -d 10 -p cbr -e 500 -c 2 -a 0 -i 9 -k MAC
+ -t 0.519483301 -s 10 -d -1 -p ACK -e 38 -c 2 -a 0 -i 0 -k MAC 
- -t 0.519483301 -s 10 -d -1 -p ACK -e 38 -c 2 -a 0 -i 0 -k MAC
h -t 0.519483301 -s 10 -d -1 -p ACK -e 38 -c 2 -a 0 -i 0 -k MAC
+ -t 0.519498301026209 -s 10 -d 0 -p cbr -e 500 -c 0 -i 9 -a 0 -x {5.0.0.0 3.0.0.0 4 ------- null}
- -t 0.519498301026209 -s 10 -d 0 -p cbr -e 500 -c 0 -i 9 -a 0 -x {5.0.0.0 3.0.0.0 4 ------- null}
h -t 0.519498301026209 -s 10 -d 0 -p cbr -e 500 -c 0 -i 9 -a 0 -x {5.0.0.0 3.0.0.0 -1 ------- null}
r -t 0.519685569 -s 11 -d -1 -p ACK -e 38 -c 2 -a 0 -i 0 -k MAC
+ -t 0.520395000 -s 11 -d -1 -p RTS -e 44 -c 2 -a 0 -i 0 -k MAC 
- -t 0.520395000 -s 11 -d -1 -p RTS -e 44 -c 2 -a 0 -i 0 -k MAC
h -t 0.520395000 -s 11 -d -1 -p RTS -e 44 -c 2 -a 0 -i 0 -k MAC
r -t 0.52047643080483 -s 10 -d 0 -p cbr -e 1000 -c 0 -i 3 -a 0 -x {6.0.0.0 3.0.0.1 0 ------- null}
+ -t 0.52047643080483 -s 0 -d 5 -p cbr -e 1000 -c 0 -i 3 -a 0 -x {6.0.0.0 3.0.0.1 0 ------- null}
- -t 0.52047643080483 -s 0 -d 5 -p cbr -e 1000 -c 0 -i 3 -a 0 -x {6.0.0.0 3.0.0.1 0 ------- null}
h -t 0.52047643080483 -s 0 -d 5 -p cbr -e 1000 -c 0 -i 3 -a 0 -x {6.0.0.0 3.0.0.1 -1 ------- null}
r -t 0.520601632 -s 10 -d -1 -p RTS -e 44 -c 2 -a 0 -i 0 -k MAC
+ -t 0.520611632 -s 10 -d -1 -p CTS -e 38 -c 2 -a 0 -i 0 -k MAC 
- -t 0.520611632 -s 10 -d -1 -p CTS -e 38 -c 2 -a 0 -i 0 -k MAC
h -t 0.520611632 -s 10 -d -1 -p CTS -e 38 -c 2 -a 0 -i 0 -k MAC
r -t 0.520813901 -s 11 -d -1 -p CTS -e 38 -c 2 -a 0 -i 0 -k MAC
+ -t 0.520823901 -s 11 -d 10 -p cbr -e 560 -c 2 -a 0 -i 10 -k MAC 
- -t 0.520823901 -s 11 -d 10 -p cbr -e 560 -c 2 -a 0 -i 10 -k MAC
h -t 0.520823901 -s 11 -d 10 -p cbr -e 560 -c 2 -a 0 -i 10 -k MAC
r -t 0.520889292541164 -s 0 -d 5 -p cbr -e 1000 -c 0 -i 3 -a 0 -x {6.0.0.0 3.0.0.1 0 ------- null}
+ -t 0.520889292541164 -s 5 -d 6 -p cbr -e 1000 -c 0 -i 3 -a 0 -x {6.0.0.0 3.0.0.1 0 ------- null}
- -t 0.520889292541164 -s 5 -d 6 -p cbr -e 1000 -c 0 -i 3 -a 0 -x {6.0.0.0 3.0.0.1 0 ------- null}
h -t 0.520889292541164 -s 5 -d 6 -p cbr -e 1000 -c 0 -i 3 -a 0 -x {6.0.0.0 3.0.0.1 -1 ------- null}
r -t 0.521405806 -s 10 -d 10 -p cbr -e 500 -c 2 -a 0 -i 10 -k MAC
+ -t 0.521415806 -s 10 -d -1 -p ACK -e 38 -c 2 -a 0 -i 0 -k MAC 
- -t 0.521415806 -s 10 -d -1 -p ACK -e 38 -c 2 -a 0 -i 0 -k MAC
h -t 0.521415806 -s 10 -d -1 -p ACK -e 38 -c 2 -a 0 -i 0 -k MAC
+ -t 0.521430805759634 -s 10 -d 0 -p cbr -e 500 -c 0 -i 10 -a 0 -x {5.0.0.0 3.0.0.0 5 ------- null}
- -t 0.521430805759634 -s 10 -d 0 -p cbr -e 500 -c 0 -i 10 -a 0 -x {5.0.0.0 3.0.0.0 5 ------- null}
h -t 0.521430805759634 -s 10 -d 0 -p cbr -e 500 -c 0 -i 10 -a 0 -x {5.0.0.0 3.0.0.0 -1 ------- null}
r -t 0.521618074 -s 11 -d -1 -p ACK -e 38 -c 2 -a 0 -i 0 -k MAC
+ -t 0.524095000 -s 12 -d -1 -p RTS -e 44 -c 2 -a 0 -i 0 -k MAC 
- -t 0.524095000 -s 12 -d -1 -p RTS -e 44 -c 2 -a 0 -i 0 -k MAC
h -t 0.524095000 -s 12 -d -1 -p RTS -e 44 -c 2 -a 0 -i 0 -k MAC
r -t 0.524301799 -s 10 -d -1 -p RTS -e 44 -c 2 -a 0 -i 0 -k MAC
+ -t 0.524311799 -s 10 -d -1 -p CTS -e 38 -c 2 -a 0 -i 0 -k MAC 
- -t 0.524311799 -s 10 -d -1 -p CTS -e 38 -c 2 -a 0 -i 0 -k MAC
h -t 0.524311799 -s 10 -d -1 -p CTS -e 38 -c 2 -a 0 -i 0 -k MAC
r -t 0.524514235 -s 12 -d -1 -p CTS -e 38 -c 2 -a 0 -i 0 -k MAC
+ -t 0.524524235 -s 12 -d 10 -p cbr -e 1060 -c 2 -a 0 -i 11 -k MAC 
- -t 0.524524235 -s 12 -d 10 -p cbr -e 1060 -c 2 -a 0 -i 11 -k MAC
h -t 0.524524235 -s 12 -d 10 -p cbr -e 1060 -c 2 -a 0 -i 11 -k MAC
r -t 0.525469943 -s 10 -d 10 -p cbr -e 1000 -c 2 -a 0 -i 11 -k MAC
+ -t 0.525479943 -s 10 -d -1 -p ACK -e 38 -c 2 -a 0 -i 0 -k MAC 
- -t 0.525479943 -s 10 -d -1 -p ACK -e 38 -c 2 -a 0 -i 0 -k MAC
h -t 0.525479943 -s 10 -d -1 -p ACK -e 38 -c 2 -a 0 -i 0 -k MAC
+ -t 0.525494943379052 -s 10 -d 0 -p cbr -e 1000 -c 0 -i 11 -a 0 -x {6.0.0.0 3.0.0.1 3 ------- null}
- -t 0.525494943379052 -s 10 -d 0 -p cbr -e 1000 -c 0 -i 11 -a 0 -x {6.0.0.0 3.0.0.1 3 ------- null}
h -t 0.525494943379052 -s 10 -d 0 -p cbr -e 1000 -c 0 -i 11 -a 0 -x {6.0.0.0 3.0.0.1 -1 ------- null}
r -t 0.525682379 -s 12 -d -1 -p ACK -e 38 -c 2 -a 0 -i 0 -k MAC
r -t 0.525985797579812 -s 10 -d 0 -p cbr -e 500 -c 0 -i 4 -a 0 -x {5.0.0.0 3.0.0.0 1 ------- null}
+ -t 0.525985797579812 -s 0 -d 5 -p cbr -e 500 -c 0 -i 4 -a 0 -x {5.0.0.0 3.0.0.0 1 ------- null}
- -t 0.525985797579812 -s 0 -d 5 -p cbr -e 500 -c 0 -i 4 -a 0 -x {5.0.0.0 3.0.0.0 1 ------- null}
h -t 0.525985797579812 -s 0 -d 5 -p cbr -e 500 -c 0 -i 4 -a 0 -x {5.0.0.0 3.0.0.0 -1 ------- null}
+ -t 0.526172213 -s 11 -d -1 -p RTS -e 44 -c 2 -a 0 -i 0 -k MAC 
- -t 0.526172213 -s 11 -d -1 -p RTS -e 44 -c 2 -a 0 -i 0 -k MAC
h -t 0.526172213 -s 11 -d -1 -p RTS -e 44 -c 2 -a 0 -i 0 -k MAC
r -t 0.526378846 -s 10 -d -1 -p RTS -e 44 -c 2 -a 0 -i 0 -k MAC
+ -t 0.526388846 -s 10 -d -1 -p CTS -e 38 -c 2 -a 0 -i 0 -k MAC 
- -t 0.526388846 -s 10 -d -1 -p CTS -e 38 -c 2 -a 0 -i 0 -k MAC
h -t 0.526388846 -s 10 -d -1 -p CTS -e 38 -c 2 -a 0 -i 0 -k MAC
r -t 0.52639222844798 -s 0 -d 5 -p cbr -e 500 -c 0 -i 4 -a 0 -x {5.0.0.0 3.0.0.0 1 ------- null}
+ -t 0.52639222844798 -s 5 -d 6 -p cbr -e 500 -c 0 -i 4 -a 0 -x {5.0.0.0 3.0.0.0 1 ------- null}
- -t 0.52639222844798 -s 5 -d 6 -p cbr -e 500 -c 0 -i 4 -a 0 -x {5.0.0.0 3.0.0.0 1 ------- null}
h -t 0.52639222844798 -s 5 -d 6 -p cbr -e 500 -c 0 -i 4 -a 0 -x {5.0.0.0 3.0.0.0 -1 ------- null}
r -t 0.526591115 -s 11 -d -1 -p CTS -e 38 -c 2 -a 0 -i 0 -k MAC
+ -t 0.526601115 -s 11 -d 10 -p cbr -e 560 -c 2 -a 0 -i 12 -k MAC 
- -t 0.526601115 -s 11 -d 10 -p cbr -e 560 -c 2 -a 0 -i 12 -k MAC
h -t 0.526601115 -s 11 -d 10 -p cbr -e 560 -c 2 -a 0 -i 12 -k MAC
r -t 0.527183021 -s 10 -d 10 -p cbr -e 500 -c 2 -a 0 -i 12 -k MAC
+ -t 0.527193021 -s 10 -d -1 -p ACK -e 38 -c 2 -a 0 -i 0 -k MAC 
- -t 0.527193021 -s 10 -d -1 -p ACK -e 38 -c 2 -a 0 -i 0 -k MAC
h -t 0.527193021 -s 10 -d -1 -p ACK -e 38 -c 2 -a 0 -i 0 -k MAC
+ -t 0.527208021425466 -s 10 -d 0 -p cbr -e 500 -c 0 -i 12 -a 0 -x {5.0.0.0 3.0.0.0 6 ------- null}
- -t 0.527208021425466 -s 10 -d 0 -p cbr -e 500 -c 0 -i 12 -a 0 -x {5.0.0.0 3.0.0.0 6 ------- null}
h -t 0.527208021425466 -s 10 -d 0 -p cbr -e 500 -c 0 -i 12 -a 0 -x {5.0.0.0 3.0.0.0 -1 ------- null}
r -t 0.527395291 -s 11 -d -1 -p ACK -e 38 -c 2 -a 0 -i 0 -k MAC
r -t 0.528021713628413 -s 10 -d 0 -p cbr -e 1000 -c 0 -i 5 -a 0 -x {6.0.0.0 3.0.0.1 1 ------- null}
+ -t 0.528021713628413 -s 0 -d 5 -p cbr -e 1000 -c 0 -i 5 -a 0 -x {6.0.0.0 3.0.0.1 1 ------- null}
- -t 0.528021713628413 -s 0 -d 5 -p cbr -e 1000 -c 0 -i 5 -a 0 -x {6.0.0.0 3.0.0.1 1 ------- null}
h -t 0.528021713628413 -s 0 -d 5 -p cbr -e 1000 -c 0 -i 5 -a 0 -x {6.0.0.0 3.0.0.1 -1 ------- null}
+ -t 0.528065291 -s 11 -d -1 -p RTS -e 44 -c 2 -a 0 -i 0 -k MAC 
- -t 0.528065291 -s 11 -d -1 -p RTS -e 44 -c 2 -a 0 -i 0 -k MAC
h -t 0.528065291 -s 11 -d -1 -p RTS -e 44 -c 2 -a 0 -i 0 -k MAC
r -t 0.528271925 -s 10 -d -1 -p RTS -e 44 -c 2 -a 0 -i 0 -k MAC
+ -t 0.528281925 -s 10 -d -1 -p CTS -e 38 -c 2 -a 0 -i 0 -k MAC 
- -t 0.528281925 -s 10 -d -1 -p CTS -e 38 -c 2 -a 0 -i 0 -k MAC
h -t 0.528281925 -s 10 -d -1 -p CTS -e 38 -c 2 -a 0 -i 0 -k MAC
r -t 0.528434575364747 -s 0 -d 5 -p cbr -e 1000 -c 0 -i 5 -a 0 -x {6.0.0.0 3.0.0.1 1 ------- null}
+ -t 0.528434575364747 -s 5 -d 6 -p cbr -e 1000 -c 0 -i 5 -a 0 -x {6.0.0.0 3.0.0.1 1 ------- null}
- -t 0.528434575364747 -s 5 -d 6 -p cbr -e 1000 -c 0 -i 5 -a 0 -x {6.0.0.0 3.0.0.1 1 ------- null}
h -t 0.528434575364747 -s 5 -d 6 -p cbr -e 1000 -c 0 -i 5 -a 0 -x {6.0.0.0 3.0.0.1 -1 ------- null}
r -t 0.528484194 -s 11 -d -1 -p CTS -e 38 -c 2 -a 0 -i 0 -k MAC
+ -t 0.528494194 -s 11 -d 10 -p cbr -e 560 -c 2 -a 0 -i 13 -k MAC 
- -t 0.528494194 -s 11 -d 10 -p cbr -e 560 -c 2 -a 0 -i 13 -k MAC
h -t 0.528494194 -s 11 -d 10 -p cbr -e 560 -c 2 -a 0 -i 13 -k MAC
r -t 0.529076101 -s 10 -d 10 -p cbr -e 500 -c 2 -a 0 -i 13 -k MAC
+ -t 0.529086101 -s 10 -d -1 -p ACK -e 38 -c 2 -a 0 -i 0 -k MAC 
- -t 0.529086101 -s 10 -d -1 -p ACK -e 38 -c 2 -a 0 -i 0 -k MAC
h -t 0.529086101 -s 10 -d -1 -p ACK -e 38 -c 2 -a 0 -i 0 -k MAC
+ -t 0.529101100703931 -s 10 -d 0 -p cbr -e 500 -c 0 -i 13 -a 0 -x {5.0.0.0 3.0.0.0 7 ------- null}
- -t 0.529101100703931 -s 10 -d 0 -p cbr -e 500 -c 0 -i 13 -a 0 -x {5.0.0.0 3.0.0.0 7 ------- null}
h -t 0.529101100703931 -s 10 -d 0 -p cbr -e 500 -c 0 -i 13 -a 0 -x {5.0.0.0 3.0.0.0 -1 ------- null}
r -t 0.529288371 -s 11 -d -1 -p ACK -e 38 -c 2 -a 0 -i 0 -k MAC
r -t 0.529724783312671 -s 10 -d 0 -p cbr -e 500 -c 0 -i 6 -a 0 -x {5.0.0.0 3.0.0.0 2 ------- null}
+ -t 0.529724783312671 -s 0 -d 5 -p cbr -e 500 -c 0 -i 6 -a 0 -x {5.0.0.0 3.0.0.0 2 ------- null}