s 0.100083958 _45_ MAC  --- 0 BCN 64 [e7 ffffffff 2a 0] 
s 0.200083958 _45_ MAC  --- 0 BCN 64 [e7 ffffffff 2a 0] 
s 0.300083958 _45_ MAC  --- 0 BCN 64 [e7 ffffffff 2a 0] 
s 0.400083958 _45_ MAC  --- 0 BCN 64 [e7 ffffffff 2a 0] 
s 0.500083958 _45_ MAC  --- 0 BCN 64 [e7 ffffffff 2a 0] 
s 0.600083958 _45_ MAC  --- 0 BCN 64 [e7 ffffffff 2a 0] 
s 0.700083958 _45_ MAC  --- 0 BCN 64 [e7 ffffffff 2a 0] 
s 0.800083958 _45_ MAC  --- 0 BCN 64 [e7 ffffffff 2a 0] 
s 0.900083958 _45_ MAC  --- 0 BCN 64 [e7 ffffffff 2a 0] 
s 1.000083958 _45_ MAC  --- 0 BCN 64 [e7 ffffffff 2a 0] 
+ 1.040015 1 0 AM_Data 40 -------- 0 5.0.0.0 3.0.3.0 0 13 0
- 1.040015 1 0 AM_Data 40 -------- 0 5.0.0.0 3.0.3.0 0 13 0
+ 1.040015 1 0 AM_Data 40 -------- 0 5.0.0.0 3.0.3.0 0 13 1
+ 1.040015 1 0 AM_Data 40 -------- 0 5.0.0.0 3.0.3.0 0 13 2
+ 1.040015 1 0 AM_Data 40 -------- 0 5.0.0.0 3.0.3.0 0 13 3
+ 1.040015 1 0 AM_Data 40 -------- 0 5.0.0.0 3.0.3.0 0 13 4
+ 1.040015 1 0 AM_Data 40 -------- 0 5.0.0.0 3.0.3.0 0 13 5
+ 1.040015 1 0 AM_Data 40 -------- 0 5.0.0.0 3.0.3.0 0 13 6
+ 1.040015 1 0 AM_Data 40 -------- 0 5.0.0.0 3.0.3.0 0 13 7
+ 1.040015 1 0 AM_Data 40 -------- 0 5.0.0.0 3.0.3.0 0 13 8
+ 1.040015 1 0 AM_Data 40 -------- 0 5.0.0.0 3.0.3.0 0 13 9
+ 1.040015 1 0 AM_Data 40 -------- 0 5.0.0.0 3.0.3.0 0 13 10
+ 1.040015 1 0 AM_Data 40 -------- 0 5.0.0.0 3.0.3.0 0 13 11
+ 1.040015 1 0 AM_Data 40 -------- 0 5.0.0.0 3.0.3.0 0 13 12
+ 1.040015 1 0 AM_Data 40 -------- 0 5.0.0.0 3.0.3.0 0 13 13
+ 1.040015 1 0 AM_Data 40 -------- 0 5.0.0.0 3.0.3.0 0 13 14
+ 1.040015 1 0 AM_Data 40 -------- 0 5.0.0.0 3.0.3.0 0 13 15
+ 1.040015 1 0 AM_Data 40 -------- 0 5.0.0.0 3.0.3.0 0 13 16
+ 1.040015 1 0 AM_Data 40 -------- 0 5.0.0.0 3.0.3.0 0 31 17
+ 1.040015 1 0 AM_Data 40 -------- 0 5.0.0.0 3.0.3.0 0 31 18
+ 1.040015 1 0 AM_Data 40 -------- 0 5.0.0.0 3.0.3.0 0 31 19
+ 1.040015 1 0 AM_Data 40 -------- 0 5.0.0.0 3.0.3.0 0 31 20
+ 1.040015 1 0 AM_Data 40 -------- 0 5.0.0.0 3.0.3.0 0 31 21
+ 1.040015 1 0 AM_Data 40 -------- 0 5.0.0.0 3.0.3.0 0 31 22
+ 1.040015 1 0 AM_Data 40 -------- 0 5.0.0.0 3.0.3.0 0 31 23
+ 1.040015 1 0 AM_Data 40 -------- 1 6.0.0.0 3.0.4.0 0 14 0
+ 1.040015 1 0 AM_Data 40 -------- 1 6.0.0.0 3.0.4.0 0 14 1
+ 1.040015 1 0 AM_Data 40 -------- 1 6.0.0.0 3.0.4.0 0 14 2
+ 1.040015 1 0 AM_Data 40 -------- 1 6.0.0.0 3.0.4.0 0 14 3
+ 1.040015 1 0 AM_Data 40 -------- 1 6.0.0.0 3.0.4.0 0 14 4
+ 1.040015 1 0 AM_Data 40 -------- 1 6.0.0.0 3.0.4.0 0 14 5
+ 1.040015 1 0 AM_Data 40 -------- 1 6.0.0.0 3.0.4.0 0 14 6
+ 1.040015 1 0 AM_Data 40 -------- 1 6.0.0.0 3.0.4.0 0 14 7
+ 1.040015 1 0 AM_Data 40 -------- 1 6.0.0.0 3.0.4.0 0 14 8
+ 1.040015 1 0 AM_Data 40 -------- 1 6.0.0.0 3.0.4.0 0 14 9
+ 1.040015 1 0 AM_Data 40 -------- 1 6.0.0.0 3.0.4.0 0 14 10
+ 1.040015 1 0 AM_Data 40 -------- 1 6.0.0.0 3.0.4.0 0 14 11
+ 1.040015 1 0 AM_Data 40 -------- 1 6.0.0.0 3.0.4.0 0 14 12
+ 1.040015 1 0 AM_Data 40 -------- 1 6.0.0.0 3.0.4.0 0 14 13
+ 1.040015 1 0 AM_Data 40 -------- 1 6.0.0.0 3.0.4.0 0 14 14
+ 1.040015 1 0 AM_Data 40 -------- 1 6.0.0.0 3.0.4.0 0 14 15
+ 1.040015 1 0 AM_Data 40 -------- 1 6.0.0.0 3.0.4.0 0 14 16
+ 1.040015 1 0 AM_Data 40 -------- 1 6.0.0.0 3.0.4.0 0 32 17
+ 1.040015 1 0 AM_Data 40 -------- 1 6.0.0.0 3.0.4.0 0 32 18
+ 1.040015 1 0 AM_Data 40 -------- 1 6.0.0.0 3.0.4.0 0 32 19
+ 1.040015 1 0 AM_Data 40 -------- 1 6.0.0.0 3.0.4.0 0 32 20
+ 1.040015 1 0 AM_Data 40 -------- 1 6.0.0.0 3.0.4.0 0 32 21
+ 1.040015 1 0 AM_Data 40 -------- 1 6.0.0.0 3.0.4.0 0 32 22
+ 1.040015 1 0 AM_Data 40 -------- 1 6.0.0.0 3.0.4.0 0 32 23
+ 1.040015 1 0 AM_Data 40 -------- 2 7.0.0.0 3.0.5.0 0 15 0
+ 1.040015 1 0 AM_Data 40 -------- 2 7.0.0.0 3.0.5.0 0 15 1
+ 1.040015 1 0 AM_Data 40 -------- 2 7.0.0.0 3.0.5.0 0 15 2
+ 1.040015 1 0 AM_Data 40 -------- 2 7.0.0.0 3.0.5.0 0 15 3
+ 1.040015 1 0 AM_Data 40 -------- 2 7.0.0.0 3.0.5.0 0 15 4
+ 1.040015 1 0 AM_Data 40 -------- 2 7.0.0.0 3.0.5.0 0 15 5
+ 1.040015 1 0 AM_Data 40 -------- 2 7.0.0.0 3.0.5.0 0 15 6
+ 1.040015 1 0 AM_Data 40 -------- 2 7.0.0.0 3.0.5.0 0 15 7
+ 1.040015 1 0 AM_Data 40 -------- 2 7.0.0.0 3.0.5.0 0 15 8
+ 1.040015 1 0 AM_Data 40 -------- 2 7.0.0.0 3.0.5.0 0 15 9
+ 1.040015 1 0 AM_Data 40 -------- 2 7.0.0.0 3.0.5.0 0 15 10
+ 1.040015 1 0 AM_Data 40 -------- 2 7.0.0.0 3.0.5.0 0 15 11
+ 1.040015 1 0 AM_Data 40 -------- 2 7.0.0.0 3.0.5.0 0 15 12
+ 1.040015 1 0 AM_Data 40 -------- 2 7.0.0.0 3.0.5.0 0 15 13
+ 1.040015 1 0 AM_Data 40 -------- 2 7.0.0.0 3.0.5.0 0 15 14
+ 1.040015 1 0 AM_Data 40 -------- 2 7.0.0.0 3.0.5.0 0 15 15
+ 1.040015 1 0 AM_Data 40 -------- 2 7.0.0.0 3.0.5.0 0 15 16
+ 1.040015 1 0 AM_Data 40 -------- 2 7.0.0.0 3.0.5.0 0 33 17
+ 1.040015 1 0 AM_Data 40 -------- 2 7.0.0.0 3.0.5.0 0 33 18
+ 1.040015 1 0 AM_Data 40 -------- 2 7.0.0.0 3.0.5.0 0 33 19
+ 1.040015 1 0 AM_Data 40 -------- 2 7.0.0.0 3.0.5.0 0 33 20
+ 1.040015 1 0 AM_Data 40 -------- 2 7.0.0.0 3.0.5.0 0 33 21
+ 1.040015 1 0 AM_Data 40 -------- 2 7.0.0.0 3.0.5.0 0 33 22
+ 1.040015 1 0 AM_Data 40 -------- 2 7.0.0.0 3.0.5.0 0 33 23
+ 1.040015 1 0 AM_Data 40 -------- 3 8.0.0.0 3.0.6.0 0 16 0
+ 1.040015 1 0 AM_Data 40 -------- 3 8.0.0.0 3.0.6.0 0 16 1
+ 1.040015 1 0 AM_Data 40 -------- 3 8.0.0.0 3.0.6.0 0 16 2
+ 1.040015 1 0 AM_Data 40 -------- 3 8.0.0.0 3.0.6.0 0 16 3
+ 1.040015 1 0 AM_Data 40 -------- 3 8.0.0.0 3.0.6.0 0 16 4
+ 1.040015 1 0 AM_Data 40 -------- 3 8.0.0.0 3.0.6.0 0 16 5
+ 1.040015 1 0 AM_Data 40 -------- 3 8.0.0.0 3.0.6.0 0 16 6
+ 1.040015 1 0 AM_Data 40 -------- 3 8.0.0.0 3.0.6.0 0 16 7
+ 1.040015 1 0 AM_Data 40 -------- 3 8.0.0.0 3.0.6.0 0 16 8
+ 1.040015 1 0 AM_Data 40 -------- 3 8.0.0.0 3.0.6.0 0 16 9
+ 1.040015 1 0 AM_Data 40 -------- 3 8.0.0.0 3.0.6.0 0 16 10
+ 1.040015 1 0 AM_Data 40 -------- 3 8.0.0.0 3.0.6.0 0 16 11
+ 1.040015 1 0 AM_Data 40 -------- 3 8.0.0.0 3.0.6.0 0 16 12
+ 1.040015 1 0 AM_Data 40 -------- 3 8.0.0.0 3.0.6.0 0 16 13
+ 1.040015 1 0 AM_Data 40 -------- 3 8.0.0.0 3.0.6.0 0 16 14
+ 1.040015 1 0 AM_Data 40 -------- 3 8.0.0.0 3.0.6.0 0 16 15
+ 1.040015 1 0 AM_Data 40 -------- 3 8.0.0.0 3.0.6.0 0 16 16
+ 1.040015 1 0 AM_Data 40 -------- 3 8.0.0.0 3.0.6.0 0 34 17
+ 1.040015 1 0 AM_Data 40 -------- 3 8.0.0.0 3.0.6.0 0 34 18
+ 1.040015 1 0 AM_Data 40 -------- 3 8.0.0.0 3.0.6.0 0 34 19
+ 1.040015 1 0 AM_Data 40 -------- 3 8.0.0.0 3.0.6.0 0 34 20
+ 1.040015 1 0 AM_Data 40 -------- 3 8.0.0.0 3.0.6.0 0 34 21
+ 1.040015 1 0 AM_Data 40 -------- 3 8.0.0.0 3.0.6.0 0 34 22
+ 1.040015 1 0 AM_Data 40 -------- 3 8.0.0.0 3.0.6.0 0 34 23
+ 1.040015 1 0 AM_Data 40 -------- 4 9.0.0.0 3.0.7.0 0 17 0
+ 1.040015 1 0 AM_Data 40 -------- 4 9.0.0.0 3.0.7.0 0 17 1
+ 1.040015 1 0 AM_Data 40 -------- 4 9.0.0.0 3.0.7.0 0 17 2
+ 1.040015 1 0 AM_Data 40 -------- 4 9.0.0.0 3.0.7.0 0 17 3
+ 1.040015 1 0 AM_Data 40 -------- 4 9.0.0.0 3.0.7.0 0 17 4
+ 1.040015 1 0 AM_Data 40 -------- 4 9.0.0.0 3.0.7.0 0 17 5
+ 1.040015 1 0 AM_Data 40 -------- 4 9.0.0.0 3.0.7.0 0 17 6
+ 1.040015 1 0 AM_Data 40 -------- 4 9.0.0.0 3.0.7.0 0 17 7
+ 1.040015 1 0 AM_Data 40 -------- 4 9.0.0.0 3.0.7.0 0 17 8
+ 1.040015 1 0 AM_Data 40 -------- 4 9.0.0.0 3.0.7.0 0 17 9
+ 1.040015 1 0 AM_Data 40 -------- 4 9.0.0.0 3.0.7.0 0 17 10
+ 1.040015 1 0 AM_Data 40 -------- 4 9.0.0.0 3.0.7.0 0 17 11
+ 1.040015 1 0 AM_Data 40 -------- 4 9.0.0.0 3.0.7.0 0 17 12
+ 1.040015 1 0 AM_Data 40 -------- 4 9.0.0.0 3.0.7.0 0 17 13
+ 1.040015 1 0 AM_Data 40 -------- 4 9.0.0.0 3.0.7.0 0 17 14
+ 1.040015 1 0 AM_Data 40 -------- 4 9.0.0.0 3.0.7.0 0 17 15
+ 1.040015 1 0 AM_Data 40 -------- 4 9.0.0.0 3.0.7.0 0 17 16
+ 1.040015 1 0 AM_Data 40 -------- 4 9.0.0.0 3.0.7.0 0 35 17
+ 1.040015 1 0 AM_Data 40 -------- 4 9.0.0.0 3.0.7.0 0 35 18
+ 1.040015 1 0 AM_Data 40 -------- 4 9.0.0.0 3.0.7.0 0 35 19
+ 1.040015 1 0 AM_Data 40 -------- 4 9.0.0.0 3.0.7.0 0 35 20
+ 1.040015 1 0 AM_Data 40 -------- 4 9.0.0.0 3.0.7.0 0 35 21
+ 1.040015 1 0 AM_Data 40 -------- 4 9.0.0.0 3.0.7.0 0 35 22
+ 1.040015 1 0 AM_Data 40 -------- 4 9.0.0.0 3.0.7.0 0 35 23
+ 1.040015 1 0 AM_Data 40 -------- 5 10.0.0.0 3.0.8.0 0 18 0
+ 1.040015 1 0 AM_Data 40 -------- 5 10.0.0.0 3.0.8.0 0 18 1
+ 1.040015 1 0 AM_Data 40 -------- 5 10.0.0.0 3.0.8.0 0 18 2
+ 1.040015 1 0 AM_Data 40 -------- 5 10.0.0.0 3.0.8.0 0 18 3
+ 1.040015 1 0 AM_Data 40 -------- 5 10.0.0.0 3.0.8.0 0 18 4
+ 1.040015 1 0 AM_Data 40 -------- 5 10.0.0.0 3.0.8.0 0 18 5
+ 1.040015 1 0 AM_Data 40 -------- 5 10.0.0.0 3.0.8.0 0 18 6
+ 1.040015 1 0 AM_Data 40 -------- 5 10.0.0.0 3.0.8.0 0 18 7
+ 1.040015 1 0 AM_Data 40 -------- 5 10.0.0.0 3.0.8.0 0 18 8
+ 1.040015 1 0 AM_Data 40 -------- 5 10.0.0.0 3.0.8.0 0 18 9
+ 1.040015 1 0 AM_Data 40 -------- 5 10.0.0.0 3.0.8.0 0 18 10
+ 1.040015 1 0 AM_Data 40 -------- 5 10.0.0.0 3.0.8.0 0 18 11
+ 1.040015 1 0 AM_Data 40 -------- 5 10.0.0.0 3.0.8.0 0 18 12
+ 1.040015 1 0 AM_Data 40 -------- 5 10.0.0.0 3.0.8.0 0 18 13
+ 1.040015 1 0 AM_Data 40 -------- 5 10.0.0.0 3.0.8.0 0 18 14
+ 1.040015 1 0 AM_Data 40 -------- 5 10.0.0.0 3.0.8.0 0 18 15
+ 1.040015 1 0 AM_Data 40 -------- 5 10.0.0.0 3.0.8.0 0 18 16
+ 1.040015 1 0 AM_Data 40 -------- 5 10.0.0.0 3.0.8.0 0 36 17
+ 1.040015 1 0 AM_Data 40 -------- 5 10.0.0.0 3.0.8.0 0 36 18
+ 1.040015 1 0 AM_Data 40 -------- 5 10.0.0.0 3.0.8.0 0 36 19
+ 1.040015 1 0 AM_Data 40 -------- 5 10.0.0.0 3.0.8.0 0 36 20
+ 1.040015 1 0 AM_Data 40 -------- 5 10.0.0.0 3.0.8.0 0 36 21
+ 1.040015 1 0 AM_Data 40 -------- 5 10.0.0.0 3.0.8.0 0 36 22
+ 1.040015 1 0 AM_Data 40 -------- 5 10.0.0.0 3.0.8.0 0 36 23
+ 1.040015 1 0 AM_Data 40 -------- 6 11.0.0.0 3.0.9.0 0 19 0
+ 1.040015 1 0 AM_Data 40 -------- 6 11.0.0.0 3.0.9.0 0 19 1
+ 1.040015 1 0 AM_Data 40 -------- 6 11.0.0.0 3.0.9.0 0 19 2
+ 1.040015 1 0 AM_Data 40 -------- 6 11.0.0.0 3.0.9.0 0 19 3
+ 1.040015 1 0 AM_Data 40 -------- 6 11.0.0.0 3.0.9.0 0 19 4
+ 1.040015 1 0 AM_Data 40 -------- 6 11.0.0.0 3.0.9.0 0 19 5
+ 1.040015 1 0 AM_Data 40 -------- 6 11.0.0.0 3.0.9.0 0 19 6
+ 1.040015 1 0 AM_Data 40 -------- 6 11.0.0.0 3.0.9.0 0 19 7
+ 1.040015 1 0 AM_Data 40 -------- 6 11.0.0.0 3.0.9.0 0 19 8
+ 1.040015 1 0 AM_Data 40 -------- 6 11.0.0.0 3.0.9.0 0 19 9
+ 1.040015 1 0 AM_Data 40 -------- 6 11.0.0.0 3.0.9.0 0 19 10
+ 1.040015 1 0 AM_Data 40 -------- 6 11.0.0.0 3.0.9.0 0 19 11
+ 1.040015 1 0 AM_Data 40 -------- 6 11.0.0.0 3.0.9.0 0 19 12
+ 1.040015 1 0 AM_Data 40 -------- 6 11.0.0.0 3.0.9.0 0 19 13
+ 1.040015 1 0 AM_Data 40 -------- 6 11.0.0.0 3.0.9.0 0 19 14
+ 1.040015 1 0 AM_Data 40 -------- 6 11.0.0.0 3.0.9.0 0 19 15
+ 1.040015 1 0 AM_Data 40 -------- 6 11.0.0.0 3.0.9.0 0 19 16
+ 1.040015 1 0 AM_Data 40 -------- 6 11.0.0.0 3.0.9.0 0 37 17
+ 1.040015 1 0 AM_Data 40 -------- 6 11.0.0.0 3.0.9.0 0 37 18
+ 1.040015 1 0 AM_Data 40 -------- 6 11.0.0.0 3.0.9.0 0 37 19
+ 1.040015 1 0 AM_Data 40 -------- 6 11.0.0.0 3.0.9.0 0 37 20
+ 1.040015 1 0 AM_Data 40 -------- 6 11.0.0.0 3.0.9.0 0 37 21
+ 1.040015 1 0 AM_Data 40 -------- 6 11.0.0.0 3.0.9.0 0 37 22
+ 1.040015 1 0 AM_Data 40 -------- 6 11.0.0.0 3.0.9.0 0 37 23
+ 1.040015 1 0 AM_Data 40 -------- 7 12.0.0.0 3.0.10.0 0 20 0
+ 1.040015 1 0 AM_Data 40 -------- 7 12.0.0.0 3.0.10.0 0 20 1
+ 1.040015 1 0 AM_Data 40 -------- 7 12.0.0.0 3.0.10.0 0 20 2
+ 1.040015 1 0 AM_Data 40 -------- 7 12.0.0.0 3.0.10.0 0 20 3
+ 1.040015 1 0 AM_Data 40 -------- 7 12.0.0.0 3.0.10.0 0 20 4
+ 1.040015 1 0 AM_Data 40 -------- 7 12.0.0.0 3.0.10.0 0 20 5
+ 1.040015 1 0 AM_Data 40 -------- 7 12.0.0.0 3.0.10.0 0 20 6
+ 1.040015 1 0 AM_Data 40 -------- 7 12.0.0.0 3.0.10.0 0 20 7
+ 1.040015 1 0 AM_Data 40 -------- 7 12.0.0.0 3.0.10.0 0 20 8
+ 1.040015 1 0 AM_Data 40 -------- 7 12.0.0.0 3.0.10.0 0 20 9
+ 1.040015 1 0 AM_Data 40 -------- 7 12.0.0.0 3.0.10.0 0 20 10
+ 1.040015 1 0 AM_Data 40 -------- 7 12.0.0.0 3.0.10.0 0 20 11
+ 1.040015 1 0 AM_Data 40 -------- 7 12.0.0.0 3.0.10.0 0 20 12
+ 1.040015 1 0 AM_Data 40 -------- 7 12.0.0.0 3.0.10.0 0 20 13
+ 1.040015 1 0 AM_Data 40 -------- 7 12.0.0.0 3.0.10.0 0 20 14
+ 1.040015 1 0 AM_Data 40 -------- 7 12.0.0.0 3.0.10.0 0 20 15
+ 1.040015 1 0 AM_Data 40 -------- 7 12.0.0.0 3.0.10.0 0 20 16
+ 1.040015 1 0 AM_Data 40 -------- 7 12.0.0.0 3.0.10.0 0 38 17
+ 1.040015 1 0 AM_Data 40 -------- 7 12.0.0.0 3.0.10.0 0 38 18
+ 1.040015 1 0 AM_Data 40 -------- 7 12.0.0.0 3.0.10.0 0 38 19
+ 1.040015 1 0 AM_Data 40 -------- 7 12.0.0.0 3.0.10.0 0 38 20
+ 1.040015 1 0 AM_Data 40 -------- 7 12.0.0.0 3.0.10.0 0 38 21
+ 1.040015 1 0 AM_Data 40 -------- 7 12.0.0.0 3.0.10.0 0 38 22
+ 1.040015 1 0 AM_Data 40 -------- 7 12.0.0.0 3.0.10.0 0 38 23
+ 1.040015 1 0 AM_Data 40 -------- 8 13.0.0.0 3.0.11.0 0 21 0
+ 1.040015 1 0 AM_Data 40 -------- 8 13.0.0.0 3.0.11.0 0 21 1
+ 1.040015 1 0 AM_Data 40 -------- 8 13.0.0.0 3.0.11.0 0 21 2
+ 1.040015 1 0 AM_Data 40 -------- 8 13.0.0.0 3.0.11.0 0 21 3
+ 1.040015 1 0 AM_Data 40 -------- 8 13.0.0.0 3.0.11.0 0 21 4
+ 1.040015 1 0 AM_Data 40 -------- 8 13.0.0.0 3.0.11.0 0 21 5
+ 1.040015 1 0 AM_Data 40 -------- 8 13.0.0.0 3.0.11.0 0 21 6
+ 1.040015 1 0 AM_Data 40 -------- 8 13.0.0.0 3.0.11.0 0 21 7
+ 1.040015 1 0 AM_Data 40 -------- 8 13.0.0.0 3.0.11.0 0 21 8
+ 1.040015 1 0 AM_Data 40 -------- 8 13.0.0.0 3.0.11.0 0 21 9
+ 1.040015 1 0 AM_Data 40 -------- 8 13.0.0.0 3.0.11.0 0 21 10
+ 1.040015 1 0 AM_Data 40 -------- 8 13.0.0.0 3.0.11.0 0 21 11
+ 1.040015 1 0 AM_Data 40 -------- 8 13.0.0.0 3.0.11.0 0 21 12
+ 1.040015 1 0 AM_Data 40 -------- 8 13.0.0.0 3.0.11.0 0 21 13
+ 1.040015 1 0 AM_Data 40 -------- 8 13.0.0.0 3.0.11.0 0 21 14
+ 1.040015 1 0 AM_Data 40 -------- 8 13.0.0.0 3.0.11.0 0 21 15
+ 1.040015 1 0 AM_Data 40 -------- 8 13.0.0.0 3.0.11.0 0 21 16
+ 1.040015 1 0 AM_Data 40 -------- 8 13.0.0.0 3.0.11.0 0 39 17
+ 1.040015 1 0 AM_Data 40 -------- 8 13.0.0.0 3.0.11.0 0 39 18
+ 1.040015 1 0 AM_Data 40 -------- 8 13.0.0.0 3.0.11.0 0 39 19
+ 1.040015 1 0 AM_Data 40 -------- 8 13.0.0.0 3.0.11.0 0 39 20
+ 1.040015 1 0 AM_Data 40 -------- 8 13.0.0.0 3.0.11.0 0 39 21
+ 1.040015 1 0 AM_Data 40 -------- 8 13.0.0.0 3.0.11.0 0 39 22
+ 1.040015 1 0 AM_Data 40 -------- 8 13.0.0.0 3.0.11.0 0 39 23
+ 1.040015 1 0 AM_Data 40 -------- 9 14.0.0.0 3.0.12.0 0 22 0
+ 1.040015 1 0 AM_Data 40 -------- 9 14.0.0.0 3.0.12.0 0 22 1
+ 1.040015 1 0 AM_Data 40 -------- 9 14.0.0.0 3.0.12.0 0 22 2
+ 1.040015 1 0 AM_Data 40 -------- 9 14.0.0.0 3.0.12.0 0 22 3
+ 1.040015 1 0 AM_Data 40 -------- 9 14.0.0.0 3.0.12.0 0 22 4
+ 1.040015 1 0 AM_Data 40 -------- 9 14.0.0.0 3.0.12.0 0 22 5
+ 1.040015 1 0 AM_Data 40 -------- 9 14.0.0.0 3.0.12.0 0 22 6
+ 1.040015 1 0 AM_Data 40 -------- 9 14.0.0.0 3.0.12.0 0 22 7
+ 1.040015 1 0 AM_Data 40 -------- 9 14.0.0.0 3.0.12.0 0 22 8
+ 1.040015 1 0 AM_Data 40 -------- 9 14.0.0.0 3.0.12.0 0 22 9
+ 1.040015 1 0 AM_Data 40 -------- 9 14.0.0.0 3.0.12.0 0 22 10
+ 1.040015 1 0 AM_Data 40 -------- 9 14.0.0.0 3.0.12.0 0 22 11
+ 1.040015 1 0 AM_Data 40 -------- 9 14.0.0.0 3.0.12.0 0 22 12
+ 1.040015 1 0 AM_Data 40 -------- 9 14.0.0.0 3.0.12.0 0 22 13
+ 1.040015 1 0 AM_Data 40 -------- 9 14.0.0.0 3.0.12.0 0 22 14
+ 1.040015 1 0 AM_Data 40 -------- 9 14.0.0.0 3.0.12.0 0 22 15
+ 1.040015 1 0 AM_Data 40 -------- 9 14.0.0.0 3.0.12.0 0 22 16
+ 1.040015 1 0 AM_Data 40 -------- 9 14.0.0.0 3.0.12.0 0 40 17
+ 1.040015 1 0 AM_Data 40 -------- 9 14.0.0.0 3.0.12.0 0 40 18
+ 1.040015 1 0 AM_Data 40 -------- 9 14.0.0.0 3.0.12.0 0 40 19
+ 1.040015 1 0 AM_Data 40 -------- 9 14.0.0.0 3.0.12.0 0 40 20
+ 1.040015 1 0 AM_Data 40 -------- 9 14.0.0.0 3.0.12.0 0 40 21
+ 1.040015 1 0 AM_Data 40 -------- 9 14.0.0.0 3.0.12.0 0 40 22
+ 1.040015 1 0 AM_Data 40 -------- 9 14.0.0.0 3.0.12.0 0 40 23
- 1.040016 1 0 AM_Data 40 -------- 0 5.0.0.0 3.0.3.0 0 13 1
- 1.040016 1 0 AM_Data 40 -------- 0 5.0.0.0 3.0.3.0 0 13 2
- 1.040017 1 0 AM_Data 40 -------- 0 5.0.0.0 3.0.3.0 0 13 3
- 1.040017 1 0 AM_Data 40 -------- 0 5.0.0.0 3.0.3.0 0 13 4
- 1.040018 1 0 AM_Data 40 -------- 0 5.0.0.0 3.0.3.0 0 13 5
- 1.040018 1 0 AM_Data 40 -------- 0 5.0.0.0 3.0.3.0 0 13 6
- 1.040019 1 0 AM_Data 40 -------- 0 5.0.0.0 3.0.3.0 0 13 7
- 1.040019 1 0 AM_Data 40 -------- 0 5.0.0.0 3.0.3.0 0 13 8
- 1.04002 1 0 AM_Data 40 -------- 0 5.0.0.0 3.0.3.0 0 13 9
- 1.04002 1 0 AM_Data 40 -------- 0 5.0.0.0 3.0.3.0 0 13 10
- 1.040021 1 0 AM_Data 40 -------- 0 5.0.0.0 3.0.3.0 0 13 11
- 1.040021 1 0 AM_Data 40 -------- 0 5.0.0.0 3.0.3.0 0 13 12
- 1.040022 1 0 AM_Data 40 -------- 0 5.0.0.0 3.0.3.0 0 13 13
- 1.040022 1 0 AM_Data 40 -------- 0 5.0.0.0 3.0.3.0 0 13 14
- 1.040023 1 0 AM_Data 40 -------- 0 5.0.0.0 3.0.3.0 0 13 15
- 1.040023 1 0 AM_Data 40 -------- 0 5.0.0.0 3.0.3.0 0 13 16
- 1.040024 1 0 AM_Data 40 -------- 0 5.0.0.0 3.0.3.0 0 31 17
- 1.040024 1 0 AM_Data 40 -------- 0 5.0.0.0 3.0.3.0 0 31 18
- 1.040025 1 0 AM_Data 40 -------- 0 5.0.0.0 3.0.3.0 0 31 19
- 1.040025 1 0 AM_Data 40 -------- 0 5.0.0.0 3.0.3.0 0 31 20
- 1.040026 1 0 AM_Data 40 -------- 0 5.0.0.0 3.0.3.0 0 31 21
- 1.040026 1 0 AM_Data 40 -------- 0 5.0.0.0 3.0.3.0 0 31 22
- 1.040027 1 0 AM_Data 40 -------- 0 5.0.0.0 3.0.3.0 0 31 23
- 1.040027 1 0 AM_Data 40 -------- 1 6.0.0.0 3.0.4.0 0 14 0
- 1.040028 1 0 AM_Data 40 -------- 1 6.0.0.0 3.0.4.0 0 14 1
- 1.040028 1 0 AM_Data 40 -------- 1 6.0.0.0 3.0.4.0 0 14 2
- 1.040029 1 0 AM_Data 40 -------- 1 6.0.0.0 3.0.4.0 0 14 3
- 1.040029 1 0 AM_Data 40 -------- 1 6.0.0.0 3.0.4.0 0 14 4
- 1.04003 1 0 AM_Data 40 -------- 1 6.0.0.0 3.0.4.0 0 14 5
- 1.04003 1 0 AM_Data 40 -------- 1 6.0.0.0 3.0.4.0 0 14 6
- 1.040031 1 0 AM_Data 40 -------- 1 6.0.0.0 3.0.4.0 0 14 7
- 1.040031 1 0 AM_Data 40 -------- 1 6.0.0.0 3.0.4.0 0 14 8
- 1.040032 1 0 AM_Data 40 -------- 1 6.0.0.0 3.0.4.0 0 14 9
- 1.040032 1 0 AM_Data 40 -------- 1 6.0.0.0 3.0.4.0 0 14 10
- 1.040033 1 0 AM_Data 40 -------- 1 6.0.0.0 3.0.4.0 0 14 11
- 1.040034 1 0 AM_Data 40 -------- 1 6.0.0.0 3.0.4.0 0 14 12
- 1.040034 1 0 AM_Data 40 -------- 1 6.0.0.0 3.0.4.0 0 14 13
- 1.040035 1 0 AM_Data 40 -------- 1 6.0.0.0 3.0.4.0 0 14 14
- 1.040035 1 0 AM_Data 40 -------- 1 6.0.0.0 3.0.4.0 0 14 15
- 1.040036 1 0 AM_Data 40 -------- 1 6.0.0.0 3.0.4.0 0 14 16
- 1.040036 1 0 AM_Data 40 -------- 1 6.0.0.0 3.0.4.0 0 32 17
- 1.040037 1 0 AM_Data 40 -------- 1 6.0.0.0 3.0.4.0 0 32 18
- 1.040037 1 0 AM_Data 40 -------- 1 6.0.0.0 3.0.4.0 0 32 19
- 1.040038 1 0 AM_Data 40 -------- 1 6.0.0.0 3.0.4.0 0 32 20
- 1.040038 1 0 AM_Data 40 -------- 1 6.0.0.0 3.0.4.0 0 32 21
- 1.040039 1 0 AM_Data 40 -------- 1 6.0.0.0 3.0.4.0 0 32 22
- 1.040039 1 0 AM_Data 40 -------- 1 6.0.0.0 3.0.4.0 0 32 23
- 1.04004 1 0 AM_Data 40 -------- 2 7.0.0.0 3.0.5.0 0 15 0
- 1.04004 1 0 AM_Data 40 -------- 2 7.0.0.0 3.0.5.0 0 15 1
- 1.040041 1 0 AM_Data 40 -------- 2 7.0.0.0 3.0.5.0 0 15 2
- 1.040041 1 0 AM_Data 40 -------- 2 7.0.0.0 3.0.5.0 0 15 3
- 1.040042 1 0 AM_Data 40 -------- 2 7.0.0.0 3.0.5.0 0 15 4
- 1.040042 1 0 AM_Data 40 -------- 2 7.0.0.0 3.0.5.0 0 15 5
- 1.040043 1 0 AM_Data 40 -------- 2 7.0.0.0 3.0.5.0 0 15 6
- 1.040043 1 0 AM_Data 40 -------- 2 7.0.0.0 3.0.5.0 0 15 7
- 1.040044 1 0 AM_Data 40 -------- 2 7.0.0.0 3.0.5.0 0 15 8
- 1.040044 1 0 AM_Data 40 -------- 2 7.0.0.0 3.0.5.0 0 15 9
- 1.040045 1 0 AM_Data 40 -------- 2 7.0.0.0 3.0.5.0 0 15 10
- 1.040045 1 0 AM_Data 40 -------- 2 7.0.0.0 3.0.5.0 0 15 11
- 1.040046 1 0 AM_Data 40 -------- 2 7.0.0.0 3.0.5.0 0 15 12
- 1.040046 1 0 AM_Data 40 -------- 2 7.0.0.0 3.0.5.0 0 15 13
- 1.040047 1 0 AM_Data 40 -------- 2 7.0.0.0 3.0.5.0 0 15 14
- 1.040047 1 0 AM_Data 40 -------- 2 7.0.0.0 3.0.5.0 0 15 15
- 1.040048 1 0 AM_Data 40 -------- 2 7.0.0.0 3.0.5.0 0 15 16
- 1.040048 1 0 AM_Data 40 -------- 2 7.0.0.0 3.0.5.0 0 33 17
- 1.040049 1 0 AM_Data 40 -------- 2 7.0.0.0 3.0.5.0 0 33 18
- 1.040049 1 0 AM_Data 40 -------- 2 7.0.0.0 3.0.5.0 0 33 19
- 1.04005 1 0 AM_Data 40 -------- 2 7.0.0.0 3.0.5.0 0 33 20
- 1.04005 1 0 AM_Data 40 -------- 2 7.0.0.0 3.0.5.0 0 33 21
- 1.040051 1 0 AM_Data 40 -------- 2 7.0.0.0 3.0.5.0 0 33 22
- 1.040052 1 0 AM_Data 40 -------- 2 7.0.0.0 3.0.5.0 0 33 23
- 1.040052 1 0 AM_Data 40 -------- 3 8.0.0.0 3.0.6.0 0 16 0
- 1.040053 1 0 AM_Data 40 -------- 3 8.0.0.0 3.0.6.0 0 16 1
- 1.040053 1 0 AM_Data 40 -------- 3 8.0.0.0 3.0.6.0 0 16 2
- 1.040054 1 0 AM_Data 40 -------- 3 8.0.0.0 3.0.6.0 0 16 3
- 1.040054 1 0 AM_Data 40 -------- 3 8.0.0.0 3.0.6.0 0 16 4
- 1.040055 1 0 AM_Data 40 -------- 3 8.0.0.0 3.0.6.0 0 16 5
- 1.040055 1 0 AM_Data 40 -------- 3 8.0.0.0 3.0.6.0 0 16 6
- 1.040056 1 0 AM_Data 40 -------- 3 8.0.0.0 3.0.6.0 0 16 7
- 1.040056 1 0 AM_Data 40 -------- 3 8.0.0.0 3.0.6.0 0 16 8
- 1.040057 1 0 AM_Data 40 -------- 3 8.0.0.0 3.0.6.0 0 16 9
- 1.040057 1 0 AM_Data 40 -------- 3 8.0.0.0 3.0.6.0 0 16 10
- 1.040058 1 0 AM_Data 40 -------- 3 8.0.0.0 3.0.6.0 0 16 11
- 1.040058 1 0 AM_Data 40 -------- 3 8.0.0.0 3.0.6.0 0 16 12
- 1.040059 1 0 AM_Data 40 -------- 3 8.0.0.0 3.0.6.0 0 16 13
- 1.040059 1 0 AM_Data 40 -------- 3 8.0.0.0 3.0.6.0 0 16 14
- 1.04006 1 0 AM_Data 40 -------- 3 8.0.0.0 3.0.6.0 0 16 15
- 1.04006 1 0 AM_Data 40 -------- 3 8.0.0.0 3.0.6.0 0 16 16
- 1.040061 1 0 AM_Data 40 -------- 3 8.0.0.0 3.0.6.0 0 34 17
- 1.040061 1 0 AM_Data 40 -------- 3 8.0.0.0 3.0.6.0 0 34 18
- 1.040062 1 0 AM_Data 40 -------- 3 8.0.0.0 3.0.6.0 0 34 19
- 1.040062 1 0 AM_Data 40 -------- 3 8.0.0.0 3.0.6.0 0 34 20
- 1.040063 1 0 AM_Data 40 -------- 3 8.0.0.0 3.0.6.0 0 34 21
- 1.040063 1 0 AM_Data 40 -------- 3 8.0.0.0 3.0.6.0 0 34 22
- 1.040064 1 0 AM_Data 40 -------- 3 8.0.0.0 3.0.6.0 0 34 23
- 1.040064 1 0 AM_Data 40 -------- 4 9.0.0.0 3.0.7.0 0 17 0
- 1.040065 1 0 AM_Data 40 -------- 4 9.0.0.0 3.0.7.0 0 17 1
- 1.040065 1 0 AM_Data 40 -------- 4 9.0.0.0 3.0.7.0 0 17 2
- 1.040066 1 0 AM_Data 40 -------- 4 9.0.0.0 3.0.7.0 0 17 3
- 1.040066 1 0 AM_Data 40 -------- 4 9.0.0.0 3.0.7.0 0 17 4
- 1.040067 1 0 AM_Data 40 -------- 4 9.0.0.0 3.0.7.0 0 17 5
- 1.040067 1 0 AM_Data 40 -------- 4 9.0.0.0 3.0.7.0 0 17 6
- 1.040068 1 0 AM_Data 40 -------- 4 9.0.0.0 3.0.7.0 0 17 7
- 1.040069 1 0 AM_Data 40 -------- 4 9.0.0.0 3.0.7.0 0 17 8
- 1.040069 1 0 AM_Data 40 -------- 4 9.0.0.0 3.0.7.0 0 17 9
- 1.04007 1 0 AM_Data 40 -------- 4 9.0.0.0 3.0.7.0 0 17 10
- 1.04007 1 0 AM_Data 40 -------- 4 9.0.0.0 3.0.7.0 0 17 11
- 1.040071 1 0 AM_Data 40 -------- 4 9.0.0.0 3.0.7.0 0 17 12
- 1.040071 1 0 AM_Data 40 -------- 4 9.0.0.0 3.0.7.0 0 17 13
- 1.040072 1 0 AM_Data 40 -------- 4 9.0.0.0 3.0.7.0 0 17 14
- 1.040072 1 0 AM_Data 40 -------- 4 9.0.0.0 3.0.7.0 0 17 15
- 1.040073 1 0 AM_Data 40 -------- 4 9.0.0.0 3.0.7.0 0 17 16
- 1.040073 1 0 AM_Data 40 -------- 4 9.0.0.0 3.0.7.0 0 35 17
- 1.040074 1 0 AM_Data 40 -------- 4 9.0.0.0 3.0.7.0 0 35 18
- 1.040074 1 0 AM_Data 40 -------- 4 9.0.0.0 3.0.7.0 0 35 19
- 1.040075 1 0 AM_Data 40 -------- 4 9.0.0.0 3.0.7.0 0 35 20
- 1.040075 1 0 AM_Data 40 -------- 4 9.0.0.0 3.0.7.0 0 35 21
- 1.040076 1 0 AM_Data 40 -------- 4 9.0.0.0 3.0.7.0 0 35 22
- 1.040076 1 0 AM_Data 40 -------- 4 9.0.0.0 3.0.7.0 0 35 23
- 1.040077 1 0 AM_Data 40 -------- 5 10.0.0.0 3.0.8.0 0 18 0
- 1.040077 1 0 AM_Data 40 -------- 5 10.0.0.0 3.0.8.0 0 18 1
- 1.040078 1 0 AM_Data 40 -------- 5 10.0.0.0 3.0.8.0 0 18 2
- 1.040078 1 0 AM_Data 40 -------- 5 10.0.0.0 3.0.8.0 0 18 3
- 1.040079 1 0 AM_Data 40 -------- 5 10.0.0.0 3.0.8.0 0 18 4
- 1.040079 1 0 AM_Data 40 -------- 5 10.0.0.0 3.0.8.0 0 18 5
- 1.04008 1 0 AM_Data 40 -------- 5 10.0.0.0 3.0.8.0 0 18 6
- 1.04008 1 0 AM_Data 40 -------- 5 10.0.0.0 3.0.8.0 0 18 7
- 1.040081 1 0 AM_Data 40 -------- 5 10.0.0.0 3.0.8.0 0 18 8
- 1.040081 1 0 AM_Data 40 -------- 5 10.0.0.0 3.0.8.0 0 18 9
- 1.040082 1 0 AM_Data 40 -------- 5 10.0.0.0 3.0.8.0 0 18 10
- 1.040082 1 0 AM_Data 40 -------- 5 10.0.0.0 3.0.8.0 0 18 11
- 1.040083 1 0 AM_Data 40 -------- 5 10.0.0.0 3.0.8.0 0 18 12
- 1.040083 1 0 AM_Data 40 -------- 5 10.0.0.0 3.0.8.0 0 18 13
- 1.040084 1 0 AM_Data 40 -------- 5 10.0.0.0 3.0.8.0 0 18 14
- 1.040084 1 0 AM_Data 40 -------- 5 10.0.0.0 3.0.8.0 0 18 15
- 1.040085 1 0 AM_Data 40 -------- 5 10.0.0.0 3.0.8.0 0 18 16
- 1.040085 1 0 AM_Data 40 -------- 5 10.0.0.0 3.0.8.0 0 36 17
- 1.040086 1 0 AM_Data 40 -------- 5 10.0.0.0 3.0.8.0 0 36 18
- 1.040087 1 0 AM_Data 40 -------- 5 10.0.0.0 3.0.8.0 0 36 19
- 1.040087 1 0 AM_Data 40 -------- 5 10.0.0.0 3.0.8.0 0 36 20
- 1.040088 1 0 AM_Data 40 -------- 5 10.0.0.0 3.0.8.0 0 36 21
- 1.040088 1 0 AM_Data 40 -------- 5 10.0.0.0 3.0.8.0 0 36 22
- 1.040089 1 0 AM_Data 40 -------- 5 10.0.0.0 3.0.8.0 0 36 23
- 1.040089 1 0 AM_Data 40 -------- 6 11.0.0.0 3.0.9.0 0 19 0
- 1.04009 1 0 AM_Data 40 -------- 6 11.0.0.0 3.0.9.0 0 19 1
- 1.04009 1 0 AM_Data 40 -------- 6 11.0.0.0 3.0.9.0 0 19 2
- 1.040091 1 0 AM_Data 40 -------- 6 11.0.0.0 3.0.9.0 0 19 3
- 1.040091 1 0 AM_Data 40 -------- 6 11.0.0.0 3.0.9.0 0 19 4
- 1.040092 1 0 AM_Data 40 -------- 6 11.0.0.0 3.0.9.0 0 19 5
- 1.040092 1 0 AM_Data 40 -------- 6 11.0.0.0 3.0.9.0 0 19 6
- 1.040093 1 0 AM_Data 40 -------- 6 11.0.0.0 3.0.9.0 0 19 7
- 1.040093 1 0 AM_Data 40 -------- 6 11.0.0.0 3.0.9.0 0 19 8
- 1.040094 1 0 AM_Data 40 -------- 6 11.0.0.0 3.0.9.0 0 19 9
- 1.040094 1 0 AM_Data 40 -------- 6 11.0.0.0 3.0.9.0 0 19 10
- 1.040095 1 0 AM_Data 40 -------- 6 11.0.0.0 3.0.9.0 0 19 11
- 1.040095 1 0 AM_Data 40 -------- 6 11.0.0.0 3.0.9.0 0 19 12
- 1.040096 1 0 AM_Data 40 -------- 6 11.0.0.0 3.0.9.0 0 19 13
- 1.040096 1 0 AM_Data 40 -------- 6 11.0.0.0 3.0.9.0 0 19 14
- 1.040097 1 0 AM_Data 40 -------- 6 11.0.0.0 3.0.9.0 0 19 15
- 1.040097 1 0 AM_Data 40 -------- 6 11.0.0.0 3.0.9.0 0 19 16
- 1.040098 1 0 AM_Data 40 -------- 6 11.0.0.0 3.0.9.0 0 37 17
- 1.040098 1 0 AM_Data 40 -------- 6 11.0.0.0 3.0.9.0 0 37 18
- 1.040099 1 0 AM_Data 40 -------- 6 11.0.0.0 3.0.9.0 0 37 19
- 1.040099 1 0 AM_Data 40 -------- 6 11.0.0.0 3.0.9.0 0 37 20
- 1.0401 1 0 AM_Data 40 -------- 6 11.0.0.0 3.0.9.0 0 37 21
- 1.0401 1 0 AM_Data 40 -------- 6 11.0.0.0 3.0.9.0 0 37 22
- 1.040101 1 0 AM_Data 40 -------- 6 11.0.0.0 3.0.9.0 0 37 23
- 1.040101 1 0 AM_Data 40 -------- 7 12.0.0.0 3.0.10.0 0 20 0
- 1.040102 1 0 AM_Data 40 -------- 7 12.0.0.0 3.0.10.0 0 20 1
- 1.040102 1 0 AM_Data 40 -------- 7 12.0.0.0 3.0.10.0 0 20 2
- 1.040103 1 0 AM_Data 40 -------- 7 12.0.0.0 3.0.10.0 0 20 3
- 1.040103 1 0 AM_Data 40 -------- 7 12.0.0.0 3.0.10.0 0 20 4
- 1.040104 1 0 AM_Data 40 -------- 7 12.0.0.0 3.0.10.0 0 20 5
- 1.040105 1 0 AM_Data 40 -------- 7 12.0.0.0 3.0.10.0 0 20 6
- 1.040105 1 0 AM_Data 40 -------- 7 12.0.0.0 3.0.10.0 0 20 7
- 1.040106 1 0 AM_Data 40 -------- 7 12.0.0.0 3.0.10.0 0 20 8
- 1.040106 1 0 AM_Data 40 -------- 7 12.0.0.0 3.0.10.0 0 20 9
- 1.040107 1 0 AM_Data 40 -------- 7 12.0.0.0 3.0.10.0 0 20 10
- 1.040107 1 0 AM_Data 40 -------- 7 12.0.0.0 3.0.10.0 0 20 11
- 1.040108 1 0 AM_Data 40 -------- 7 12.0.0.0 3.0.10.0 0 20 12
- 1.040108 1 0 AM_Data 40 -------- 7 12.0.0.0 3.0.10.0 0 20 13
- 1.040109 1 0 AM_Data 40 -------- 7 12.0.0.0 3.0.10.0 0 20 14
- 1.040109 1 0 AM_Data 40 -------- 7 12.0.0.0 3.0.10.0 0 20 15
- 1.04011 1 0 AM_Data 40 -------- 7 12.0.0.0 3.0.10.0 0 20 16
- 1.04011 1 0 AM_Data 40 -------- 7 12.0.0.0 3.0.10.0 0 38 17
- 1.040111 1 0 AM_Data 40 -------- 7 12.0.0.0 3.0.10.0 0 38 18
- 1.040111 1 0 AM_Data 40 -------- 7 12.0.0.0 3.0.10.0 0 38 19
- 1.040112 1 0 AM_Data 40 -------- 7 12.0.0.0 3.0.10.0 0 38 20
- 1.040112 1 0 AM_Data 40 -------- 7 12.0.0.0 3.0.10.0 0 38 21
- 1.040113 1 0 AM_Data 40 -------- 7 12.0.0.0 3.0.10.0 0 38 22
- 1.040113 1 0 AM_Data 40 -------- 7 12.0.0.0 3.0.10.0 0 38 23
- 1.040114 1 0 AM_Data 40 -------- 8 13.0.0.0 3.0.11.0 0 21 0
- 1.040114 1 0 AM_Data 40 -------- 8 13.0.0.0 3.0.11.0 0 21 1
- 1.040115 1 0 AM_Data 40 -------- 8 13.0.0.0 3.0.11.0 0 21 2
- 1.040115 1 0 AM_Data 40 -------- 8 13.0.0.0 3.0.11.0 0 21 3
- 1.040116 1 0 AM_Data 40 -------- 8 13.0.0.0 3.0.11.0 0 21 4
- 1.040116 1 0 AM_Data 40 -------- 8 13.0.0.0 3.0.11.0 0 21 5
- 1.040117 1 0 AM_Data 40 -------- 8 13.0.0.0 3.0.11.0 0 21 6
- 1.040117 1 0 AM_Data 40 -------- 8 13.0.0.0 3.0.11.0 0 21 7
- 1.040118 1 0 AM_Data 40 -------- 8 13.0.0.0 3.0.11.0 0 21 8
- 1.040118 1 0 AM_Data 40 -------- 8 13.0.0.0 3.0.11.0 0 21 9
- 1.040119 1 0 AM_Data 40 -------- 8 13.0.0.0 3.0.11.0 0 21 10
- 1.040119 1 0 AM_Data 40 -------- 8 13.0.0.0 3.0.11.0 0 21 11
- 1.04012 1 0 AM_Data 40 -------- 8 13.0.0.0 3.0.11.0 0 21 12
- 1.04012 1 0 AM_Data 40 -------- 8 13.0.0.0 3.0.11.0 0 21 13
- 1.040121 1 0 AM_Data 40 -------- 8 13.0.0.0 3.0.11.0 0 21 14
- 1.040121 1 0 AM_Data 40 -------- 8 13.0.0.0 3.0.11.0 0 21 15
- 1.040122 1 0 AM_Data 40 -------- 8 13.0.0.0 3.0.11.0 0 21 16
- 1.040123 1 0 AM_Data 40 -------- 8 13.0.0.0 3.0.11.0 0 39 17
- 1.040123 1 0 AM_Data 40 -------- 8 13.0.0.0 3.0.11.0 0 39 18
- 1.040124 1 0 AM_Data 40 -------- 8 13.0.0.0 3.0.11.0 0 39 19
- 1.040124 1 0 AM_Data 40 -------- 8 13.0.0.0 3.0.11.0 0 39 20
- 1.040125 1 0 AM_Data 40 -------- 8 13.0.0.0 3.0.11.0 0 39 21
- 1.040125 1 0 AM_Data 40 -------- 8 13.0.0.0 3.0.11.0 0 39 22
- 1.040126 1 0 AM_Data 40 -------- 8 13.0.0.0 3.0.11.0 0 39 23
- 1.040126 1 0 AM_Data 40 -------- 9 14.0.0.0 3.0.12.0 0 22 0
- 1.040127 1 0 AM_Data 40 -------- 9 14.0.0.0 3.0.12.0 0 22 1
- 1.040127 1 0 AM_Data 40 -------- 9 14.0.0.0 3.0.12.0 0 22 2
- 1.040128 1 0 AM_Data 40 -------- 9 14.0.0.0 3.0.12.0 0 22 3
- 1.040128 1 0 AM_Data 40 -------- 9 14.0.0.0 3.0.12.0 0 22 4
- 1.040129 1 0 AM_Data 40 -------- 9 14.0.0.0 3.0.12.0 0 22 5
- 1.040129 1 0 AM_Data 40 -------- 9 14.0.0.0 3.0.12.0 0 22 6
- 1.04013 1 0 AM_Data 40 -------- 9 14.0.0.0 3.0.12.0 0 22 7
- 1.04013 1 0 AM_Data 40 -------- 9 14.0.0.0 3.0.12.0 0 22 8
- 1.040131 1 0 AM_Data 40 -------- 9 14.0.0.0 3.0.12.0 0 22 9
- 1.040131 1 0 AM_Data 40 -------- 9 14.0.0.0 3.0.12.0 0 22 10
- 1.040132 1 0 AM_Data 40 -------- 9 14.0.0.0 3.0.12.0 0 22 11
- 1.040132 1 0 AM_Data 40 -------- 9 14.0.0.0 3.0.12.0 0 22 12
- 1.040133 1 0 AM_Data 40 -------- 9 14.0.0.0 3.0.12.0 0 22 13
- 1.040133 1 0 AM_Data 40 -------- 9 14.0.0.0 3.0.12.0 0 22 14
- 1.040134 1 0 AM_Data 40 -------- 9 14.0.0.0 3.0.12.0 0 22 15
- 1.040134 1 0 AM_Data 40 -------- 9 14.0.0.0 3.0.12.0 0 22 16
- 1.040135 1 0 AM_Data 40 -------- 9 14.0.0.0 3.0.12.0 0 40 17
- 1.040135 1 0 AM_Data 40 -------- 9 14.0.0.0 3.0.12.0 0 40 18
- 1.040136 1 0 AM_Data 40 -------- 9 14.0.0.0 3.0.12.0 0 40 19
- 1.040136 1 0 AM_Data 40 -------- 9 14.0.0.0 3.0.12.0 0 40 20
- 1.040137 1 0 AM_Data 40 -------- 9 14.0.0.0 3.0.12.0 0 40 21
- 1.040137 1 0 AM_Data 40 -------- 9 14.0.0.0 3.0.12.0 0 40 22