s 0.100083958 _45_ MAC  --- 0 BCN 64 [e7 ffffffff 2a 0] 
s 0.200083958 _45_ MAC  --- 0 BCN 64 [e7 ffffffff 2a 0] 
s 0.300083958 _45_ MAC  --- 0 BCN 64 [e7 ffffffff 2a 0] 
s 0.400083958 _45_ MAC  --- 0 BCN 64 [e7 ffffffff 2a 0] 
s 0.500083958 _45_ MAC  --- 0 BCN 64 [e7 ffffffff 2a 0] 
s 0.600083958 _45_ MAC  --- 0 BCN 64 [e7 ffffffff 2a 0] 
s 0.700083958 _45_ MAC  --- 0 BCN 64 [e7 ffffffff 2a 0] 
s 0.800083958 _45_ MAC  --- 0 BCN 64 [e7 ffffffff 2a 0] 
s 0.900083958 _45_ MAC  --- 0 BCN 64 [e7 ffffffff 2a 0] 
s 1.000083958 _45_ MAC  --- 0 BCN 64 [e7 ffffffff 2a 0] 
s 1.000435000 _47_ MAC  --- 0 ARP 88 [0 ffffffff 2c 806] ------- [REQUEST 44/12582914 0/12582912]
D 1.013875000 _47_ IFQ  ARP 14 cbr 777 [0 0 2c 800] ------- [25165824:1 4:0 31 12582912] [0] 0 0
s 1.013950000 _47_ MAC  --- 0 ARP 88 [0 ffffffff 2c 806] ------- [REQUEST 44/12582914 0/12582912]
D 1.027750000 _47_ IFQ  ARP 17 cbr 777 [0 0 2c 800] ------- [25165824:1 4:0 31 12582912] [1] 0 0
s 1.027905000 _47_ MAC  --- 0 ARP 88 [0 ffffffff 2c 806] ------- [REQUEST 44/12582914 0/12582912]
+ 1.040015 1 0 AM_Data 40 -------- 0 5.0.0.0 3.0.2.0 0 13 0
- 1.040015 1 0 AM_Data 40 -------- 0 5.0.0.0 3.0.2.0 0 13 0
+ 1.040015 1 0 AM_Data 40 -------- 0 5.0.0.0 3.0.2.0 0 13 1
+ 1.040015 1 0 AM_Data 40 -------- 0 5.0.0.0 3.0.2.0 0 13 2
+ 1.040015 1 0 AM_Data 40 -------- 0 5.0.0.0 3.0.2.0 0 13 3
+ 1.040015 1 0 AM_Data 40 -------- 0 5.0.0.0 3.0.2.0 0 13 4
+ 1.040015 1 0 AM_Data 40 -------- 0 5.0.0.0 3.0.2.0 0 13 5
+ 1.040015 1 0 AM_Data 40 -------- 0 5.0.0.0 3.0.2.0 0 13 6
+ 1.040015 1 0 AM_Data 40 -------- 0 5.0.0.0 3.0.2.0 0 13 7
+ 1.040015 1 0 AM_Data 40 -------- 0 5.0.0.0 3.0.2.0 0 13 8
+ 1.040015 1 0 AM_Data 40 -------- 0 5.0.0.0 3.0.2.0 0 13 9
+ 1.040015 1 0 AM_Data 40 -------- 0 5.0.0.0 3.0.2.0 0 13 10
+ 1.040015 1 0 AM_Data 40 -------- 0 5.0.0.0 3.0.2.0 0 13 11
+ 1.040015 1 0 AM_Data 40 -------- 0 5.0.0.0 3.0.2.0 0 13 12
+ 1.040015 1 0 AM_Data 40 -------- 0 5.0.0.0 3.0.2.0 0 13 13
+ 1.040015 1 0 AM_Data 40 -------- 0 5.0.0.0 3.0.2.0 0 13 14
+ 1.040015 1 0 AM_Data 40 -------- 0 5.0.0.0 3.0.2.0 0 13 15
+ 1.040015 1 0 AM_Data 40 -------- 0 5.0.0.0 3.0.2.0 0 13 16
+ 1.040015 1 0 AM_Data 40 -------- 0 5.0.0.0 3.0.2.0 0 16 17
+ 1.040015 1 0 AM_Data 40 -------- 0 5.0.0.0 3.0.2.0 0 16 18
+ 1.040015 1 0 AM_Data 40 -------- 0 5.0.0.0 3.0.2.0 0 16 19
+ 1.040015 1 0 AM_Data 40 -------- 0 5.0.0.0 3.0.2.0 0 16 20
+ 1.040015 1 0 AM_Data 40 -------- 0 5.0.0.0 3.0.2.0 0 16 21
+ 1.040015 1 0 AM_Data 40 -------- 0 5.0.0.0 3.0.2.0 0 16 22
+ 1.040015 1 0 AM_Data 40 -------- 0 5.0.0.0 3.0.2.0 0 16 23
- 1.040016 1 0 AM_Data 40 -------- 0 5.0.0.0 3.0.2.0 0 13 1
- 1.040016 1 0 AM_Data 40 -------- 0 5.0.0.0 3.0.2.0 0 13 2
- 1.040017 1 0 AM_Data 40 -------- 0 5.0.0.0 3.0.2.0 0 13 3
- 1.040017 1 0 AM_Data 40 -------- 0 5.0.0.0 3.0.2.0 0 13 4
- 1.040018 1 0 AM_Data 40 -------- 0 5.0.0.0 3.0.2.0 0 13 5
- 1.040018 1 0 AM_Data 40 -------- 0 5.0.0.0 3.0.2.0 0 13 6
- 1.040019 1 0 AM_Data 40 -------- 0 5.0.0.0 3.0.2.0 0 13 7
- 1.040019 1 0 AM_Data 40 -------- 0 5.0.0.0 3.0.2.0 0 13 8
- 1.04002 1 0 AM_Data 40 -------- 0 5.0.0.0 3.0.2.0 0 13 9
- 1.04002 1 0 AM_Data 40 -------- 0 5.0.0.0 3.0.2.0 0 13 10
- 1.040021 1 0 AM_Data 40 -------- 0 5.0.0.0 3.0.2.0 0 13 11
- 1.040021 1 0 AM_Data 40 -------- 0 5.0.0.0 3.0.2.0 0 13 12
- 1.040022 1 0 AM_Data 40 -------- 0 5.0.0.0 3.0.2.0 0 13 13
- 1.040022 1 0 AM_Data 40 -------- 0 5.0.0.0 3.0.2.0 0 13 14
- 1.040023 1 0 AM_Data 40 -------- 0 5.0.0.0 3.0.2.0 0 13 15
- 1.040023 1 0 AM_Data 40 -------- 0 5.0.0.0 3.0.2.0 0 13 16
- 1.040024 1 0 AM_Data 40 -------- 0 5.0.0.0 3.0.2.0 0 16 17
- 1.040024 1 0 AM_Data 40 -------- 0 5.0.0.0 3.0.2.0 0 16 18
- 1.040025 1 0 AM_Data 40 -------- 0 5.0.0.0 3.0.2.0 0 16 19
- 1.040025 1 0 AM_Data 40 -------- 0 5.0.0.0 3.0.2.0 0 16 20
- 1.040026 1 0 AM_Data 40 -------- 0 5.0.0.0 3.0.2.0 0 16 21
- 1.040026 1 0 AM_Data 40 -------- 0 5.0.0.0 3.0.2.0 0 16 22
- 1.040027 1 0 AM_Data 40 -------- 0 5.0.0.0 3.0.2.0 0 16 23
D 1.041625000 _47_ RTR  CBK 20 cbr 777 [0 0 2c 800] ------- [25165824:1 4:0 31 12582912] [2] 0 0
D 1.041625000 _47_ RTR  CBK 23 cbr 777 [0 0 2c 800] ------- [25165824:1 4:0 31 12582912] [3] 0 0
r 1.055016 1 0 AM_Data 40 -------- 0 5.0.0.0 3.0.2.0 0 13 0
r 1.055016 1 0 AM_Data 40 -------- 0 5.0.0.0 3.0.2.0 0 13 1
r 1.055017 1 0 AM_Data 40 -------- 0 5.0.0.0 3.0.2.0 0 13 2
r 1.055017 1 0 AM_Data 40 -------- 0 5.0.0.0 3.0.2.0 0 13 3
r 1.055018 1 0 AM_Data 40 -------- 0 5.0.0.0 3.0.2.0 0 13 4
r 1.055018 1 0 AM_Data 40 -------- 0 5.0.0.0 3.0.2.0 0 13 5
r 1.055019 1 0 AM_Data 40 -------- 0 5.0.0.0 3.0.2.0 0 13 6
r 1.055019 1 0 AM_Data 40 -------- 0 5.0.0.0 3.0.2.0 0 13 7
r 1.05502 1 0 AM_Data 40 -------- 0 5.0.0.0 3.0.2.0 0 13 8
r 1.05502 1 0 AM_Data 40 -------- 0 5.0.0.0 3.0.2.0 0 13 9
r 1.055021 1 0 AM_Data 40 -------- 0 5.0.0.0 3.0.2.0 0 13 10
r 1.055021 1 0 AM_Data 40 -------- 0 5.0.0.0 3.0.2.0 0 13 11
r 1.055022 1 0 AM_Data 40 -------- 0 5.0.0.0 3.0.2.0 0 13 12
r 1.055022 1 0 AM_Data 40 -------- 0 5.0.0.0 3.0.2.0 0 13 13
r 1.055023 1 0 AM_Data 40 -------- 0 5.0.0.0 3.0.2.0 0 13 14
r 1.055023 1 0 AM_Data 40 -------- 0 5.0.0.0 3.0.2.0 0 13 15
r 1.055024 1 0 AM_Data 40 -------- 0 5.0.0.0 3.0.2.0 0 13 16
r 1.055024 1 0 AM_Data 40 -------- 0 5.0.0.0 3.0.2.0 0 16 17
r 1.055025 1 0 AM_Data 40 -------- 0 5.0.0.0 3.0.2.0 0 16 18
r 1.055025 1 0 AM_Data 40 -------- 0 5.0.0.0 3.0.2.0 0 16 19
r 1.055026 1 0 AM_Data 40 -------- 0 5.0.0.0 3.0.2.0 0 16 20
r 1.055026 1 0 AM_Data 40 -------- 0 5.0.0.0 3.0.2.0 0 16 21
r 1.055027 1 0 AM_Data 40 -------- 0 5.0.0.0 3.0.2.0 0 16 22
r 1.055027 1 0 AM_Data 40 -------- 0 5.0.0.0 3.0.2.0 0 16 23
+ 1.055074 0 22 cbr 666 ------- 0 5.0.0.0 3.0.2.0 0 13
- 1.055074 0 22 cbr 666 ------- 0 5.0.0.0 3.0.2.0 0 13
r 1.055482 0 22 cbr 666 ------- 0 5.0.0.0 3.0.2.0 0 13
+ 1.055482 22 23 cbr 666 ------- 0 5.0.0.0 3.0.2.0 0 13
- 1.055482 22 23 cbr 666 ------- 0 5.0.0.0 3.0.2.0 0 13
s 1.056095000 _47_ MAC  --- 0 ARP 88 [0 ffffffff 2c 806] ------- [REQUEST 44/12582914 0/12582912]
+ 1.060015 1 0 AM_Data 40 -------- 0 5.0.0.0 3.0.2.0 0 16 24
- 1.060015 1 0 AM_Data 40 -------- 0 5.0.0.0 3.0.2.0 0 16 24
+ 1.060015 1 0 AM_Data 40 -------- 0 5.0.0.0 3.0.2.0 0 16 25
+ 1.060015 1 0 AM_Data 40 -------- 0 5.0.0.0 3.0.2.0 0 16 26
+ 1.060015 1 0 AM_Data 40 -------- 0 5.0.0.0 3.0.2.0 0 16 27
+ 1.060015 1 0 AM_Data 40 -------- 0 5.0.0.0 3.0.2.0 0 16 28
+ 1.060015 1 0 AM_Data 40 -------- 0 5.0.0.0 3.0.2.0 0 16 29
+ 1.060015 1 0 AM_Data 40 -------- 0 5.0.0.0 3.0.2.0 0 16 30
+ 1.060015 1 0 AM_Data 40 -------- 0 5.0.0.0 3.0.2.0 0 16 31
+ 1.060015 1 0 AM_Data 40 -------- 0 5.0.0.0 3.0.2.0 0 16 32
+ 1.060015 1 0 AM_Data 40 -------- 0 5.0.0.0 3.0.2.0 0 16 33
+ 1.060015 1 0 AM_Data 40 -------- 0 5.0.0.0 3.0.2.0 0 19 34
+ 1.060015 1 0 AM_Data 40 -------- 0 5.0.0.0 3.0.2.0 0 19 35
+ 1.060015 1 0 AM_Data 40 -------- 0 5.0.0.0 3.0.2.0 0 19 36
+ 1.060015 1 0 AM_Data 40 -------- 0 5.0.0.0 3.0.2.0 0 19 37
+ 1.060015 1 0 AM_Data 40 -------- 0 5.0.0.0 3.0.2.0 0 19 38
+ 1.060015 1 0 AM_Data 40 -------- 0 5.0.0.0 3.0.2.0 0 19 39
+ 1.060015 1 0 AM_Data 40 -------- 0 5.0.0.0 3.0.2.0 0 19 40
+ 1.060015 1 0 AM_Data 40 -------- 0 5.0.0.0 3.0.2.0 0 19 41
+ 1.060015 1 0 AM_Data 40 -------- 0 5.0.0.0 3.0.2.0 0 19 42
+ 1.060015 1 0 AM_Data 40 -------- 0 5.0.0.0 3.0.2.0 0 19 43
+ 1.060015 1 0 AM_Data 40 -------- 0 5.0.0.0 3.0.2.0 0 19 44
+ 1.060015 1 0 AM_Data 40 -------- 0 5.0.0.0 3.0.2.0 0 19 45
+ 1.060015 1 0 AM_Data 40 -------- 0 5.0.0.0 3.0.2.0 0 19 46
+ 1.060015 1 0 AM_Data 40 -------- 0 5.0.0.0 3.0.2.0 0 19 47
- 1.060016 1 0 AM_Data 40 -------- 0 5.0.0.0 3.0.2.0 0 16 25
- 1.060016 1 0 AM_Data 40 -------- 0 5.0.0.0 3.0.2.0 0 16 26
- 1.060017 1 0 AM_Data 40 -------- 0 5.0.0.0 3.0.2.0 0 16 27
- 1.060017 1 0 AM_Data 40 -------- 0 5.0.0.0 3.0.2.0 0 16 28
- 1.060018 1 0 AM_Data 40 -------- 0 5.0.0.0 3.0.2.0 0 16 29
- 1.060018 1 0 AM_Data 40 -------- 0 5.0.0.0 3.0.2.0 0 16 30
- 1.060019 1 0 AM_Data 40 -------- 0 5.0.0.0 3.0.2.0 0 16 31
- 1.060019 1 0 AM_Data 40 -------- 0 5.0.0.0 3.0.2.0 0 16 32
- 1.06002 1 0 AM_Data 40 -------- 0 5.0.0.0 3.0.2.0 0 16 33
- 1.06002 1 0 AM_Data 40 -------- 0 5.0.0.0 3.0.2.0 0 19 34
- 1.060021 1 0 AM_Data 40 -------- 0 5.0.0.0 3.0.2.0 0 19 35
- 1.060021 1 0 AM_Data 40 -------- 0 5.0.0.0 3.0.2.0 0 19 36
- 1.060022 1 0 AM_Data 40 -------- 0 5.0.0.0 3.0.2.0 0 19 37
- 1.060022 1 0 AM_Data 40 -------- 0 5.0.0.0 3.0.2.0 0 19 38
- 1.060023 1 0 AM_Data 40 -------- 0 5.0.0.0 3.0.2.0 0 19 39
- 1.060023 1 0 AM_Data 40 -------- 0 5.0.0.0 3.0.2.0 0 19 40
- 1.060024 1 0 AM_Data 40 -------- 0 5.0.0.0 3.0.2.0 0 19 41
- 1.060024 1 0 AM_Data 40 -------- 0 5.0.0.0 3.0.2.0 0 19 42
- 1.060025 1 0 AM_Data 40 -------- 0 5.0.0.0 3.0.2.0 0 19 43
- 1.060025 1 0 AM_Data 40 -------- 0 5.0.0.0 3.0.2.0 0 19 44
- 1.060026 1 0 AM_Data 40 -------- 0 5.0.0.0 3.0.2.0 0 19 45
- 1.060026 1 0 AM_Data 40 -------- 0 5.0.0.0 3.0.2.0 0 19 46
- 1.060027 1 0 AM_Data 40 -------- 0 5.0.0.0 3.0.2.0 0 19 47
r 1.065483 22 23 cbr 666 ------- 0 5.0.0.0 3.0.2.0 0 13
+ 1.065483 23 45 cbr 666 ------- 0 5.0.0.0 3.0.2.0 0 13
- 1.065483 23 45 cbr 666 ------- 0 5.0.0.0 3.0.2.0 0 13
D 1.069375000 _47_ IFQ  ARP 26 cbr 777 [0 0 2c 800] ------- [25165824:1 4:0 31 12582912] [4] 0 0
s 1.069550000 _47_ MAC  --- 0 ARP 88 [0 ffffffff 2c 806] ------- [REQUEST 44/12582914 0/12582912]
r 1.075016 1 0 AM_Data 40 -------- 0 5.0.0.0 3.0.2.0 0 16 24
r 1.075016 1 0 AM_Data 40 -------- 0 5.0.0.0 3.0.2.0 0 16 25
r 1.075017 1 0 AM_Data 40 -------- 0 5.0.0.0 3.0.2.0 0 16 26
r 1.075017 1 0 AM_Data 40 -------- 0 5.0.0.0 3.0.2.0 0 16 27
r 1.075018 1 0 AM_Data 40 -------- 0 5.0.0.0 3.0.2.0 0 16 28
r 1.075018 1 0 AM_Data 40 -------- 0 5.0.0.0 3.0.2.0 0 16 29
r 1.075019 1 0 AM_Data 40 -------- 0 5.0.0.0 3.0.2.0 0 16 30
r 1.075019 1 0 AM_Data 40 -------- 0 5.0.0.0 3.0.2.0 0 16 31
r 1.07502 1 0 AM_Data 40 -------- 0 5.0.0.0 3.0.2.0 0 16 32
r 1.07502 1 0 AM_Data 40 -------- 0 5.0.0.0 3.0.2.0 0 16 33
r 1.075021 1 0 AM_Data 40 -------- 0 5.0.0.0 3.0.2.0 0 19 34
r 1.075021 1 0 AM_Data 40 -------- 0 5.0.0.0 3.0.2.0 0 19 35
r 1.075022 1 0 AM_Data 40 -------- 0 5.0.0.0 3.0.2.0 0 19 36
r 1.075022 1 0 AM_Data 40 -------- 0 5.0.0.0 3.0.2.0 0 19 37
r 1.075023 1 0 AM_Data 40 -------- 0 5.0.0.0 3.0.2.0 0 19 38
r 1.075023 1 0 AM_Data 40 -------- 0 5.0.0.0 3.0.2.0 0 19 39
r 1.075024 1 0 AM_Data 40 -------- 0 5.0.0.0 3.0.2.0 0 19 40
r 1.075024 1 0 AM_Data 40 -------- 0 5.0.0.0 3.0.2.0 0 19 41
r 1.075025 1 0 AM_Data 40 -------- 0 5.0.0.0 3.0.2.0 0 19 42
r 1.075025 1 0 AM_Data 40 -------- 0 5.0.0.0 3.0.2.0 0 19 43
r 1.075026 1 0 AM_Data 40 -------- 0 5.0.0.0 3.0.2.0 0 19 44
r 1.075026 1 0 AM_Data 40 -------- 0 5.0.0.0 3.0.2.0 0 19 45
r 1.075027 1 0 AM_Data 40 -------- 0 5.0.0.0 3.0.2.0 0 19 46
r 1.075027 1 0 AM_Data 40 -------- 0 5.0.0.0 3.0.2.0 0 19 47
+ 1.07507 0 22 cbr 666 ------- 0 5.0.0.0 3.0.2.0 1 16
- 1.07507 0 22 cbr 666 ------- 0 5.0.0.0 3.0.2.0 1 16
r 1.075479 0 22 cbr 666 ------- 0 5.0.0.0 3.0.2.0 1 16
+ 1.075479 22 23 cbr 666 ------- 0 5.0.0.0 3.0.2.0 1 16
- 1.075479 22 23 cbr 666 ------- 0 5.0.0.0 3.0.2.0 1 16
+ 1.080015 1 0 AM_Data 40 -------- 0 5.0.0.0 3.0.2.0 0 19 48
- 1.080015 1 0 AM_Data 40 -------- 0 5.0.0.0 3.0.2.0 0 19 48
+ 1.080015 1 0 AM_Data 40 -------- 0 5.0.0.0 3.0.2.0 0 19 49
+ 1.080015 1 0 AM_Data 40 -------- 0 5.0.0.0 3.0.2.0 0 19 50
+ 1.080015 1 0 AM_Data 40 -------- 0 5.0.0.0 3.0.2.0 0 22 51
+ 1.080015 1 0 AM_Data 40 -------- 0 5.0.0.0 3.0.2.0 0 22 52
+ 1.080015 1 0 AM_Data 40 -------- 0 5.0.0.0 3.0.2.0 0 22 53
+ 1.080015 1 0 AM_Data 40 -------- 0 5.0.0.0 3.0.2.0 0 22 54
+ 1.080015 1 0 AM_Data 40 -------- 0 5.0.0.0 3.0.2.0 0 22 55
+ 1.080015 1 0 AM_Data 40 -------- 0 5.0.0.0 3.0.2.0 0 22 56
+ 1.080015 1 0 AM_Data 40 -------- 0 5.0.0.0 3.0.2.0 0 22 57
+ 1.080015 1 0 AM_Data 40 -------- 0 5.0.0.0 3.0.2.0 0 22 58
+ 1.080015 1 0 AM_Data 40 -------- 0 5.0.0.0 3.0.2.0 0 22 59
+ 1.080015 1 0 AM_Data 40 -------- 0 5.0.0.0 3.0.2.0 0 22 60
+ 1.080015 1 0 AM_Data 40 -------- 0 5.0.0.0 3.0.2.0 0 22 61
+ 1.080015 1 0 AM_Data 40 -------- 0 5.0.0.0 3.0.2.0 0 22 62
+ 1.080015 1 0 AM_Data 40 -------- 0 5.0.0.0 3.0.2.0 0 22 63
+ 1.080015 1 0 AM_Data 40 -------- 0 5.0.0.0 3.0.2.0 0 22 64
+ 1.080015 1 0 AM_Data 40 -------- 0 5.0.0.0 3.0.2.0 0 22 65
+ 1.080015 1 0 AM_Data 40 -------- 0 5.0.0.0 3.0.2.0 0 22 66
+ 1.080015 1 0 AM_Data 40 -------- 0 5.0.0.0 3.0.2.0 0 25 67
+ 1.080015 1 0 AM_Data 40 -------- 0 5.0.0.0 3.0.2.0 0 25 68
+ 1.080015 1 0 AM_Data 40 -------- 0 5.0.0.0 3.0.2.0 0 25 69
+ 1.080015 1 0 AM_Data 40 -------- 0 5.0.0.0 3.0.2.0 0 25 70
+ 1.080015 1 0 AM_Data 40 -------- 0 5.0.0.0 3.0.2.0 0 25 71
- 1.080016 1 0 AM_Data 40 -------- 0 5.0.0.0 3.0.2.0 0 19 49
- 1.080016 1 0 AM_Data 40 -------- 0 5.0.0.0 3.0.2.0 0 19 50
- 1.080017 1 0 AM_Data 40 -------- 0 5.0.0.0 3.0.2.0 0 22 51
- 1.080017 1 0 AM_Data 40 -------- 0 5.0.0.0 3.0.2.0 0 22 52
- 1.080018 1 0 AM_Data 40 -------- 0 5.0.0.0 3.0.2.0 0 22 53
- 1.080018 1 0 AM_Data 40 -------- 0 5.0.0.0 3.0.2.0 0 22 54
- 1.080019 1 0 AM_Data 40 -------- 0 5.0.0.0 3.0.2.0 0 22 55
- 1.080019 1 0 AM_Data 40 -------- 0 5.0.0.0 3.0.2.0 0 22 56
- 1.08002 1 0 AM_Data 40 -------- 0 5.0.0.0 3.0.2.0 0 22 57
- 1.08002 1 0 AM_Data 40 -------- 0 5.0.0.0 3.0.2.0 0 22 58
- 1.080021 1 0 AM_Data 40 -------- 0 5.0.0.0 3.0.2.0 0 22 59
- 1.080021 1 0 AM_Data 40 -------- 0 5.0.0.0 3.0.2.0 0 22 60
- 1.080022 1 0 AM_Data 40 -------- 0 5.0.0.0 3.0.2.0 0 22 61
- 1.080022 1 0 AM_Data 40 -------- 0 5.0.0.0 3.0.2.0 0 22 62
- 1.080023 1 0 AM_Data 40 -------- 0 5.0.0.0 3.0.2.0 0 22 63
- 1.080023 1 0 AM_Data 40 -------- 0 5.0.0.0 3.0.2.0 0 22 64
- 1.080024 1 0 AM_Data 40 -------- 0 5.0.0.0 3.0.2.0 0 22 65
- 1.080024 1 0 AM_Data 40 -------- 0 5.0.0.0 3.0.2.0 0 22 66
- 1.080025 1 0 AM_Data 40 -------- 0 5.0.0.0 3.0.2.0 0 25 67
- 1.080025 1 0 AM_Data 40 -------- 0 5.0.0.0 3.0.2.0 0 25 68
- 1.080026 1 0 AM_Data 40 -------- 0 5.0.0.0 3.0.2.0 0 25 69
- 1.080026 1 0 AM_Data 40 -------- 0 5.0.0.0 3.0.2.0 0 25 70
- 1.080027 1 0 AM_Data 40 -------- 0 5.0.0.0 3.0.2.0 0 25 71
r 1.08055 23 45 cbr 666 ------- 0 5.0.0.0 3.0.2.0 0 13
s 1.081064983 _45_ MAC  --- 0 ARP 88 [0 ffffffff 2a 806] ------- [REQUEST 42/12582912 0/12582914]
D 1.083250000 _47_ IFQ  ARP 29 cbr 777 [0 0 2c 800] ------- [25165824:1 4:0 31 12582912] [5] 0 0
s 1.083325000 _47_ MAC  --- 0 ARP 88 [0 ffffffff 2c 806] ------- [REQUEST 44/12582914 0/12582912]
r 1.08548 22 23 cbr 666 ------- 0 5.0.0.0 3.0.2.0 1 16
+ 1.08548 23 45 cbr 666 ------- 0 5.0.0.0 3.0.2.0 1 16
- 1.08548 23 45 cbr 666 ------- 0 5.0.0.0 3.0.2.0 1 16
r 1.095016 1 0 AM_Data 40 -------- 0 5.0.0.0 3.0.2.0 0 19 48
r 1.095016 1 0 AM_Data 40 -------- 0 5.0.0.0 3.0.2.0 0 19 49
r 1.095017 1 0 AM_Data 40 -------- 0 5.0.0.0 3.0.2.0 0 19 50
r 1.095017 1 0 AM_Data 40 -------- 0 5.0.0.0 3.0.2.0 0 22 51
r 1.095018 1 0 AM_Data 40 -------- 0 5.0.0.0 3.0.2.0 0 22 52
r 1.095018 1 0 AM_Data 40 -------- 0 5.0.0.0 3.0.2.0 0 22 53
r 1.095019 1 0 AM_Data 40 -------- 0 5.0.0.0 3.0.2.0 0 22 54
r 1.095019 1 0 AM_Data 40 -------- 0 5.0.0.0 3.0.2.0 0 22 55
r 1.09502 1 0 AM_Data 40 -------- 0 5.0.0.0 3.0.2.0 0 22 56
r 1.09502 1 0 AM_Data 40 -------- 0 5.0.0.0 3.0.2.0 0 22 57
r 1.095021 1 0 AM_Data 40 -------- 0 5.0.0.0 3.0.2.0 0 22 58
r 1.095021 1 0 AM_Data 40 -------- 0 5.0.0.0 3.0.2.0 0 22 59
r 1.095022 1 0 AM_Data 40 -------- 0 5.0.0.0 3.0.2.0 0 22 60
r 1.095022 1 0 AM_Data 40 -------- 0 5.0.0.0 3.0.2.0 0 22 61
r 1.095023 1 0 AM_Data 40 -------- 0 5.0.0.0 3.0.2.0 0 22 62
r 1.095023 1 0 AM_Data 40 -------- 0 5.0.0.0 3.0.2.0 0 22 63
r 1.095024 1 0 AM_Data 40 -------- 0 5.0.0.0 3.0.2.0 0 22 64
r 1.095024 1 0 AM_Data 40 -------- 0 5.0.0.0 3.0.2.0 0 22 65
r 1.095025 1 0 AM_Data 40 -------- 0 5.0.0.0 3.0.2.0 0 22 66
r 1.095025 1 0 AM_Data 40 -------- 0 5.0.0.0 3.0.2.0 0 25 67
r 1.095026 1 0 AM_Data 40 -------- 0 5.0.0.0 3.0.2.0 0 25 68
r 1.095026 1 0 AM_Data 40 -------- 0 5.0.0.0 3.0.2.0 0 25 69
r 1.095027 1 0 AM_Data 40 -------- 0 5.0.0.0 3.0.2.0 0 25 70
r 1.095027 1 0 AM_Data 40 -------- 0 5.0.0.0 3.0.2.0 0 25 71
+ 1.095067 0 22 cbr 666 ------- 0 5.0.0.0 3.0.2.0 2 19
- 1.095067 0 22 cbr 666 ------- 0 5.0.0.0 3.0.2.0 2 19
+ 1.095075 0 22 cbr 666 ------- 0 5.0.0.0 3.0.2.0 3 22
- 1.095075 0 22 cbr 666 ------- 0 5.0.0.0 3.0.2.0 3 22
r 1.095475 0 22 cbr 666 ------- 0 5.0.0.0 3.0.2.0 2 19
+ 1.095475 22 23 cbr 666 ------- 0 5.0.0.0 3.0.2.0 2 19
- 1.095475 22 23 cbr 666 ------- 0 5.0.0.0 3.0.2.0 2 19
r 1.095484 0 22 cbr 666 ------- 0 5.0.0.0 3.0.2.0 3 22
+ 1.095484 22 23 cbr 666 ------- 0 5.0.0.0 3.0.2.0 3 22
- 1.095484 22 23 cbr 666 ------- 0 5.0.0.0 3.0.2.0 3 22
D 1.097125000 _47_ RTR  CBK 33 cbr 777 [0 0 2c 800] ------- [25165824:1 4:0 31 12582912] [6] 0 0
D 1.097125000 _47_ RTR  CBK 36 cbr 777 [0 0 2c 800] ------- [25165824:1 4:0 31 12582912] [7] 0 0
+ 1.100015 1 0 AM_Data 40 -------- 0 5.0.0.0 3.0.2.0 0 25 72
- 1.100015 1 0 AM_Data 40 -------- 0 5.0.0.0 3.0.2.0 0 25 72
+ 1.100015 1 0 AM_Data 40 -------- 0 5.0.0.0 3.0.2.0 0 25 73
+ 1.100015 1 0 AM_Data 40 -------- 0 5.0.0.0 3.0.2.0 0 25 74
+ 1.100015 1 0 AM_Data 40 -------- 0 5.0.0.0 3.0.2.0 0 25 75
+ 1.100015 1 0 AM_Data 40 -------- 0 5.0.0.0 3.0.2.0 0 25 76
+ 1.100015 1 0 AM_Data 40 -------- 0 5.0.0.0 3.0.2.0 0 25 77
+ 1.100015 1 0 AM_Data 40 -------- 0 5.0.0.0 3.0.2.0 0 25 78
+ 1.100015 1 0 AM_Data 40 -------- 0 5.0.0.0 3.0.2.0 0 25 79
+ 1.100015 1 0 AM_Data 40 -------- 0 5.0.0.0 3.0.2.0 0 25 80
+ 1.100015 1 0 AM_Data 40 -------- 0 5.0.0.0 3.0.2.0 0 25 81
+ 1.100015 1 0 AM_Data 40 -------- 0 5.0.0.0 3.0.2.0 0 25 82
+ 1.100015 1 0 AM_Data 40 -------- 0 5.0.0.0 3.0.2.0 0 25 83
+ 1.100015 1 0 AM_Data 40 -------- 0 5.0.0.0 3.0.2.0 0 27 84
+ 1.100015 1 0 AM_Data 40 -------- 0 5.0.0.0 3.0.2.0 0 27 85
+ 1.100015 1 0 AM_Data 40 -------- 0 5.0.0.0 3.0.2.0 0 27 86
+ 1.100015 1 0 AM_Data 40 -------- 0 5.0.0.0 3.0.2.0 0 27 87
+ 1.100015 1 0 AM_Data 40 -------- 0 5.0.0.0 3.0.2.0 0 27 88
+ 1.100015 1 0 AM_Data 40 -------- 0 5.0.0.0 3.0.2.0 0 27 89
+ 1.100015 1 0 AM_Data 40 -------- 0 5.0.0.0 3.0.2.0 0 27 90
+ 1.100015 1 0 AM_Data 40 -------- 0 5.0.0.0 3.0.2.0 0 27 91
+ 1.100015 1 0 AM_Data 40 -------- 0 5.0.0.0 3.0.2.0 0 27 92
+ 1.100015 1 0 AM_Data 40 -------- 0 5.0.0.0 3.0.2.0 0 27 93
+ 1.100015 1 0 AM_Data 40 -------- 0 5.0.0.0 3.0.2.0 0 27 94
+ 1.100015 1 0 AM_Data 40 -------- 0 5.0.0.0 3.0.2.0 0 27 95
- 1.100016 1 0 AM_Data 40 -------- 0 5.0.0.0 3.0.2.0 0 25 73
- 1.100016 1 0 AM_Data 40 -------- 0 5.0.0.0 3.0.2.0 0 25 74
- 1.100017 1 0 AM_Data 40 -------- 0 5.0.0.0 3.0.2.0 0 25 75
- 1.100017 1 0 AM_Data 40 -------- 0 5.0.0.0 3.0.2.0 0 25 76
- 1.100018 1 0 AM_Data 40 -------- 0 5.0.0.0 3.0.2.0 0 25 77
- 1.100018 1 0 AM_Data 40 -------- 0 5.0.0.0 3.0.2.0 0 25 78
- 1.100019 1 0 AM_Data 40 -------- 0 5.0.0.0 3.0.2.0 0 25 79
- 1.100019 1 0 AM_Data 40 -------- 0 5.0.0.0 3.0.2.0 0 25 80
- 1.10002 1 0 AM_Data 40 -------- 0 5.0.0.0 3.0.2.0 0 25 81
- 1.10002 1 0 AM_Data 40 -------- 0 5.0.0.0 3.0.2.0 0 25 82
- 1.100021 1 0 AM_Data 40 -------- 0 5.0.0.0 3.0.2.0 0 25 83
- 1.100021 1 0 AM_Data 40 -------- 0 5.0.0.0 3.0.2.0 0 27 84
- 1.100022 1 0 AM_Data 40 -------- 0 5.0.0.0 3.0.2.0 0 27 85
- 1.100022 1 0 AM_Data 40 -------- 0 5.0.0.0 3.0.2.0 0 27 86
- 1.100023 1 0 AM_Data 40 -------- 0 5.0.0.0 3.0.2.0 0 27 87
- 1.100023 1 0 AM_Data 40 -------- 0 5.0.0.0 3.0.2.0 0 27 88
- 1.100024 1 0 AM_Data 40 -------- 0 5.0.0.0 3.0.2.0 0 27 89
- 1.100024 1 0 AM_Data 40 -------- 0 5.0.0.0 3.0.2.0 0 27 90
- 1.100025 1 0 AM_Data 40 -------- 0 5.0.0.0 3.0.2.0 0 27 91
- 1.100025 1 0 AM_Data 40 -------- 0 5.0.0.0 3.0.2.0 0 27 92
- 1.100026 1 0 AM_Data 40 -------- 0 5.0.0.0 3.0.2.0 0 27 93
- 1.100026 1 0 AM_Data 40 -------- 0 5.0.0.0 3.0.2.0 0 27 94
- 1.100027 1 0 AM_Data 40 -------- 0 5.0.0.0 3.0.2.0 0 27 95
s 1.100083958 _45_ MAC  --- 0 BCN 64 [e7 ffffffff 2a 0] 
r 1.100546 23 45 cbr 666 ------- 0 5.0.0.0 3.0.2.0 1 16
D 1.100546381 _45_ IFQ  ARP 13 cbr 666 [0 0 2a 800] ------- [20971520:0 12582914:0 27 12582914] [0] 0 0
s 1.100681381 _45_ MAC  --- 0 ARP 88 [0 ffffffff 2a 806] ------- [REQUEST 42/12582912 0/12582914]
r 1.105476 22 23 cbr 666 ------- 0 5.0.0.0 3.0.2.0 2 19
+ 1.105476 23 45 cbr 666 ------- 0 5.0.0.0 3.0.2.0 2 19
- 1.105476 23 45 cbr 666 ------- 0 5.0.0.0 3.0.2.0 2 19
r 1.105485 22 23 cbr 666 ------- 0 5.0.0.0 3.0.2.0 3 22
+ 1.105485 23 45 cbr 666 ------- 0 5.0.0.0 3.0.2.0 3 22
- 1.105543 23 45 cbr 666 ------- 0 5.0.0.0 3.0.2.0 3 22
s 1.111195000 _47_ MAC  --- 0 ARP 88 [0 ffffffff 2c 806] ------- [REQUEST 44/12582914 0/12582912]
r 1.115016 1 0 AM_Data 40 -------- 0 5.0.0.0 3.0.2.0 0 25 72
r 1.115016 1 0 AM_Data 40 -------- 0 5.0.0.0 3.0.2.0 0 25 73
r 1.115017 1 0 AM_Data 40 -------- 0 5.0.0.0 3.0.2.0 0 25 74
r 1.115017 1 0 AM_Data 40 -------- 0 5.0.0.0 3.0.2.0 0 25 75
r 1.115018 1 0 AM_Data 40 -------- 0 5.0.0.0 3.0.2.0 0 25 76
r 1.115018 1 0 AM_Data 40 -------- 0 5.0.0.0 3.0.2.0 0 25 77
r 1.115019 1 0 AM_Data 40 -------- 0 5.0.0.0 3.0.2.0 0 25 78
r 1.115019 1 0 AM_Data 40 -------- 0 5.0.0.0 3.0.2.0 0 25 79
r 1.11502 1 0 AM_Data 40 -------- 0 5.0.0.0 3.0.2.0 0 25 80
r 1.11502 1 0 AM_Data 40 -------- 0 5.0.0.0 3.0.2.0 0 25 81
r 1.115021 1 0 AM_Data 40 -------- 0 5.0.0.0 3.0.2.0 0 25 82
r 1.115021 1 0 AM_Data 40 -------- 0 5.0.0.0 3.0.2.0 0 25 83
r 1.115022 1 0 AM_Data 40 -------- 0 5.0.0.0 3.0.2.0 0 27 84
r 1.115022 1 0 AM_Data 40 -------- 0 5.0.0.0 3.0.2.0 0 27 85
r 1.115023 1 0 AM_Data 40 -------- 0 5.0.0.0 3.0.2.0 0 27 86
r 1.115023 1 0 AM_Data 40 -------- 0 5.0.0.0 3.0.2.0 0 27 87
r 1.115024 1 0 AM_Data 40 -------- 0 5.0.0.0 3.0.2.0 0 27 88
r 1.115024 1 0 AM_Data 40 -------- 0 5.0.0.0 3.0.2.0 0 27 89
r 1.115025 1 0 AM_Data 40 -------- 0 5.0.0.0 3.0.2.0 0 27 90
r 1.115025 1 0 AM_Data 40 -------- 0 5.0.0.0 3.0.2.0 0 27 91
r 1.115026 1 0 AM_Data 40 -------- 0 5.0.0.0 3.0.2.0 0 27 92
r 1.115026 1 0 AM_Data 40 -------- 0 5.0.0.0 3.0.2.0 0 27 93
r 1.115027 1 0 AM_Data 40 -------- 0 5.0.0.0 3.0.2.0 0 27 94
r 1.115027 1 0 AM_Data 40 -------- 0 5.0.0.0 3.0.2.0 0 27 95
+ 1.115071 0 22 cbr 666 ------- 0 5.0.0.0 3.0.2.0 4 25
- 1.115071 0 22 cbr 666 ------- 0 5.0.0.0 3.0.2.0 4 25
r 1.11548 0 22 cbr 666 ------- 0 5.0.0.0 3.0.2.0 4 25
+ 1.11548 22 23 cbr 666 ------- 0 5.0.0.0 3.0.2.0 4 25
- 1.11548 22 23 cbr 666 ------- 0 5.0.0.0 3.0.2.0 4 25
+ 1.120015 1 0 AM_Data 40 -------- 0 5.0.0.0 3.0.2.0 0 27 96
- 1.120015 1 0 AM_Data 40 -------- 0 5.0.0.0 3.0.2.0 0 27 96
+ 1.120015 1 0 AM_Data 40 -------- 0 5.0.0.0 3.0.2.0 0 27 97
+ 1.120015 1 0 AM_Data 40 -------- 0 5.0.0.0 3.0.2.0 0 27 98
+ 1.120015 1 0 AM_Data 40 -------- 0 5.0.0.0 3.0.2.0 0 27 99
+ 1.120015 1 0 AM_Data 40 -------- 0 5.0.0.0 3.0.2.0 0 27 100
+ 1.120015 1 0 AM_Data 40 -------- 0 5.0.0.0 3.0.2.0 0 30 101
+ 1.120015 1 0 AM_Data 40 -------- 0 5.0.0.0 3.0.2.0 0 30 102
+ 1.120015 1 0 AM_Data 40 -------- 0 5.0.0.0 3.0.2.0 0 30 103
+ 1.120015 1 0 AM_Data 40 -------- 0 5.0.0.0 3.0.2.0 0 30 104
+ 1.120015 1 0 AM_Data 40 -------- 0 5.0.0.0 3.0.2.0 0 30 105
+ 1.120015 1 0 AM_Data 40 -------- 0 5.0.0.0 3.0.2.0 0 30 106
+ 1.120015 1 0 AM_Data 40 -------- 0 5.0.0.0 3.0.2.0 0 30 107
+ 1.120015 1 0 AM_Data 40 -------- 0 5.0.0.0 3.0.2.0 0 30 108
+ 1.120015 1 0 AM_Data 40 -------- 0 5.0.0.0 3.0.2.0 0 30 109
+ 1.120015 1 0 AM_Data 40 -------- 0 5.0.0.0 3.0.2.0 0 30 110
+ 1.120015 1 0 AM_Data 40 -------- 0 5.0.0.0 3.0.2.0 0 30 111
+ 1.120015 1 0 AM_Data 40 -------- 0 5.0.0.0 3.0.2.0 0 30 112
+ 1.120015 1 0 AM_Data 40 -------- 0 5.0.0.0 3.0.2.0 0 30 113
+ 1.120015 1 0 AM_Data 40 -------- 0 5.0.0.0 3.0.2.0 0 30 114
+ 1.120015 1 0 AM_Data 40 -------- 0 5.0.0.0 3.0.2.0 0 30 115
+ 1.120015 1 0 AM_Data 40 -------- 0 5.0.0.0 3.0.2.0 0 30 116
+ 1.120015 1 0 AM_Data 40 -------- 0 5.0.0.0 3.0.2.0 0 32 117
+ 1.120015 1 0 AM_Data 40 -------- 0 5.0.0.0 3.0.2.0 0 32 118
+ 1.120015 1 0 AM_Data 40 -------- 0 5.0.0.0 3.0.2.0 0 32 119
- 1.120016 1 0 AM_Data 40 -------- 0 5.0.0.0 3.0.2.0 0 27 97
- 1.120016 1 0 AM_Data 40 -------- 0 5.0.0.0 3.0.2.0 0 27 98
- 1.120017 1 0 AM_Data 40 -------- 0 5.0.0.0 3.0.2.0 0 27 99
- 1.120017 1 0 AM_Data 40 -------- 0 5.0.0.0 3.0.2.0 0 27 100
- 1.120018 1 0 AM_Data 40 -------- 0 5.0.0.0 3.0.2.0 0 30 101
- 1.120018 1 0 AM_Data 40 -------- 0 5.0.0.0 3.0.2.0 0 30 102
- 1.120019 1 0 AM_Data 40 -------- 0 5.0.0.0 3.0.2.0 0 30 103
- 1.120019 1 0 AM_Data 40 -------- 0 5.0.0.0 3.0.2.0 0 30 104
- 1.12002 1 0 AM_Data 40 -------- 0 5.0.0.0 3.0.2.0 0 30 105
- 1.12002 1 0 AM_Data 40 -------- 0 5.0.0.0 3.0.2.0 0 30 106
- 1.120021 1 0 AM_Data 40 -------- 0 5.0.0.0 3.0.2.0 0 30 107
- 1.120021 1 0 AM_Data 40 -------- 0 5.0.0.0 3.0.2.0 0 30 108
- 1.120022 1 0 AM_Data 40 -------- 0 5.0.0.0 3.0.2.0 0 30 109
- 1.120022 1 0 AM_Data 40 -------- 0 5.0.0.0 3.0.2.0 0 30 110
- 1.120023 1 0 AM_Data 40 -------- 0 5.0.0.0 3.0.2.0 0 30 111
- 1.120023 1 0 AM_Data 40 -------- 0 5.0.0.0 3.0.2.0 0 30 112
- 1.120024 1 0 AM_Data 40 -------- 0 5.0.0.0 3.0.2.0 0 30 113
- 1.120024 1 0 AM_Data 40 -------- 0 5.0.0.0 3.0.2.0 0 30 114
- 1.120025 1 0 AM_Data 40 -------- 0 5.0.0.0 3.0.2.0 0 30 115
- 1.120025 1 0 AM_Data 40 -------- 0 5.0.0.0 3.0.2.0 0 30 116
- 1.120026 1 0 AM_Data 40 -------- 0 5.0.0.0 3.0.2.0 0 32 117
- 1.120026 1 0 AM_Data 40 -------- 0 5.0.0.0 3.0.2.0 0 32 118
- 1.120027 1 0 AM_Data 40 -------- 0 5.0.0.0 3.0.2.0 0 32 119
r 1.120543 23 45 cbr 666 ------- 0 5.0.0.0 3.0.2.0 2 19
D 1.120542780 _45_ IFQ  ARP 16 cbr 666 [0 0 2a 800] ------- [20971520:0 12582914:0 27 12582914] [1] 0 0
r 1.120609 23 45 cbr 666 ------- 0 5.0.0.0 3.0.2.0 3 22
D 1.120609380 _45_ RTR  CBK 19 cbr 666 [0 0 2a 800] ------- [20971520:0 12582914:0 27 12582914] [2] 0 0
D 1.120609380 _45_ RTR  CBK 22 cbr 666 [0 0 2a 800] ------- [20971520:0 12582914:0 27 12582914] [3] 0 0
s 1.120897780 _45_ MAC  --- 0 ARP 88 [0 ffffffff 2a 806] ------- [REQUEST 42/12582912 0/12582914]
D 1.124875000 _47_ IFQ  ARP 39 cbr 777 [0 0 2c 800] ------- [25165824:1 4:0 31 12582912] [8] 0 0
s 1.125090000 _47_ MAC  --- 0 ARP 88 [0 ffffffff 2c 806] ------- [REQUEST 44/12582914 0/12582912]
r 1.125481 22 23 cbr 666 ------- 0 5.0.0.0 3.0.2.0 4 25
+ 1.125481 23 45 cbr 666 ------- 0 5.0.0.0 3.0.2.0 4 25
- 1.125481 23 45 cbr 666 ------- 0 5.0.0.0 3.0.2.0 4 25
r 1.135016 1 0 AM_Data 40 -------- 0 5.0.0.0 3.0.2.0 0 27 96
r 1.135016 1 0 AM_Data 40 -------- 0 5.0.0.0 3.0.2.0 0 27 97
r 1.135017 1 0 AM_Data 40 -------- 0 5.0.0.0 3.0.2.0 0 27 98
r 1.135017 1 0 AM_Data 40 -------- 0 5.0.0.0 3.0.2.0 0 27 99
r 1.135018 1 0 AM_Data 40 -------- 0 5.0.0.0 3.0.2.0 0 27 100
r 1.135018 1 0 AM_Data 40 -------- 0 5.0.0.0 3.0.2.0 0 30 101
r 1.135019 1 0 AM_Data 40 -------- 0 5.0.0.0 3.0.2.0 0 30 102
r 1.135019 1 0 AM_Data 40 -------- 0 5.0.0.0 3.0.2.0 0 30 103
r 1.13502 1 0 AM_Data 40 -------- 0 5.0.0.0 3.0.2.0 0 30 104
r 1.13502 1 0 AM_Data 40 -------- 0 5.0.0.0 3.0.2.0 0 30 105
r 1.135021 1 0 AM_Data 40 -------- 0 5.0.0.0 3.0.2.0 0 30 106
r 1.135021 1 0 AM_Data 40 -------- 0 5.0.0.0 3.0.2.0 0 30 107
r 1.135022 1 0 AM_Data 40 -------- 0 5.0.0.0 3.0.2.0 0 30 108
r 1.135022 1 0 AM_Data 40 -------- 0 5.0.0.0 3.0.2.0 0 30 109
r 1.135023 1 0 AM_Data 40 -------- 0 5.0.0.0 3.0.2.0 0 30 110
r 1.135023 1 0 AM_Data 40 -------- 0 5.0.0.0 3.0.2.0 0 30 111
r 1.135024 1 0 AM_Data 40 -------- 0 5.0.0.0 3.0.2.0 0 30 112
r 1.135024 1 0 AM_Data 40 -------- 0 5.0.0.0 3.0.2.0 0 30 113
r 1.135025 1 0 AM_Data 40 -------- 0 5.0.0.0 3.0.2.0 0 30 114
r 1.135025 1 0 AM_Data 40 -------- 0 5.0.0.0 3.0.2.0 0 30 115
r 1.135026 1 0 AM_Data 40 -------- 0 5.0.0.0 3.0.2.0 0 30 116
r 1.135026 1 0 AM_Data 40 -------- 0 5.0.0.0 3.0.2.0 0 32 117
r 1.135027 1 0 AM_Data 40 -------- 0 5.0.0.0 3.0.2.0 0 32 118
r 1.135027 1 0 AM_Data 40 -------- 0 5.0.0.0 3.0.2.0 0 32 119
+ 1.135068 0 22 cbr 666 ------- 0 5.0.0.0 3.0.2.0 5 27
- 1.135068 0 22 cbr 666 ------- 0 5.0.0.0 3.0.2.0 5 27
+ 1.135076 0 22 cbr 666 ------- 0 5.0.0.0 3.0.2.0 6 30
- 1.135076 0 22 cbr 666 ------- 0 5.0.0.0 3.0.2.0 6 30
r 1.135476 0 22 cbr 666 ------- 0 5.0.0.0 3.0.2.0 5 27
+ 1.135476 22 23 cbr 666 ------- 0 5.0.0.0 3.0.2.0 5 27
- 1.135476 22 23 cbr 666 ------- 0 5.0.0.0 3.0.2.0 5 27
r 1.135485 0 22 cbr 666 ------- 0 5.0.0.0 3.0.2.0 6 30
+ 1.135485 22 23 cbr 666 ------- 0 5.0.0.0 3.0.2.0 6 30
- 1.135485 22 23 cbr 666 ------- 0 5.0.0.0 3.0.2.0 6 30
D 1.138750000 _47_ IFQ  ARP 42 cbr 777 [0 0 2c 800] ------- [25165824:1 4:0 31 12582912] [9] 0 0
s 1.138805000 _47_ MAC  --- 0 ARP 88 [0 ffffffff 2c 806] ------- [REQUEST 44/12582914 0/12582912]
+ 1.140015 1 0 AM_Data 40 -------- 0 5.0.0.0 3.0.2.0 0 32 120
- 1.140015 1 0 AM_Data 40 -------- 0 5.0.0.0 3.0.2.0 0 32 120
+ 1.140015 1 0 AM_Data 40 -------- 0 5.0.0.0 3.0.2.0 0 32 121
+ 1.140015 1 0 AM_Data 40 -------- 0 5.0.0.0 3.0.2.0 0 32 122
+ 1.140015 1 0 AM_Data 40 -------- 0 5.0.0.0 3.0.2.0 0 32 123
+ 1.140015 1 0 AM_Data 40 -------- 0 5.0.0.0 3.0.2.0 0 32 124
+ 1.140015 1 0 AM_Data 40 -------- 0 5.0.0.0 3.0.2.0 0 32 125
+ 1.140015 1 0 AM_Data 40 -------- 0 5.0.0.0 3.0.2.0 0 32 126
+ 1.140015 1 0 AM_Data 40 -------- 0 5.0.0.0 3.0.2.0 0 32 127
+ 1.140015 1 0 AM_Data 40 -------- 0 5.0.0.0 3.0.2.0 0 32 128
+ 1.140015 1 0 AM_Data 40 -------- 0 5.0.0.0 3.0.2.0 0 32 129
+ 1.140015 1 0 AM_Data 40 -------- 0 5.0.0.0 3.0.2.0 0 32 130
+ 1.140015 1 0 AM_Data 40 -------- 0 5.0.0.0 3.0.2.0 0 32 131
+ 1.140015 1 0 AM_Data 40 -------- 0 5.0.0.0 3.0.2.0 0 32 132
+ 1.140015 1 0 AM_Data 40 -------- 0 5.0.0.0 3.0.2.0 0 32 133
+ 1.140015 1 0 AM_Data 40 -------- 0 5.0.0.0 3.0.2.0 0 35 134
+ 1.140015 1 0 AM_Data 40 -------- 0 5.0.0.0 3.0.2.0 0 35 135
+ 1.140015 1 0 AM_Data 40 -------- 0 5.0.0.0 3.0.2.0 0 35 136
+ 1.140015 1 0 AM_Data 40 -------- 0 5.0.0.0 3.0.2.0 0 35 137
+ 1.140015 1 0 AM_Data 40 -------- 0 5.0.0.0 3.0.2.0 0 35 138
+ 1.140015 1 0 AM_Data 40 -------- 0 5.0.0.0 3.0.2.0 0 35 139
+ 1.140015 1 0 AM_Data 40 -------- 0 5.0.0.0 3.0.2.0 0 35 140
+ 1.140015 1 0 AM_Data 40 -------- 0 5.0.0.0 3.0.2.0 0 35 141
+ 1.140015 1 0 AM_Data 40 -------- 0 5.0.0.0 3.0.2.0 0 35 142
+ 1.140015 1 0 AM_Data 40 -------- 0 5.0.0.0 3.0.2.0 0 35 143
- 1.140016 1 0 AM_Data 40 -------- 0 5.0.0.0 3.0.2.0 0 32 121
- 1.140016 1 0 AM_Data 40 -------- 0 5.0.0.0 3.0.2.0 0 32 122
- 1.140017 1 0 AM_Data 40 -------- 0 5.0.0.0 3.0.2.0 0 32 123
- 1.140017 1 0 AM_Data 40 -------- 0 5.0.0.0 3.0.2.0 0 32 124