M 0.00000 16777217 (200.00, 50.00, 0.00), (750.00, 100.00), 50.00
M 0.00000 16777218 (250.00, 50.00, 0.00), (850.00, 100.00), 50.00
s -t 0.100083958 -Hs 10 -Hd -2 -Ni 10 -Nx 200.00 -Ny 50.00 -Nz 0.00 -Ne -1.000000 -Nl MAC -Nw --- -Ma e7 -Md ffffffff -Ms 8 -Mt 0 
r -t 0.100305065 -Hs 11 -Hd -2 -Ni 11 -Nx 204.99 -Ny 50.45 -Nz 0.00 -Ne -1.000000 -Nl MAC -Nw --- -Ma e7 -Md ffffffff -Ms 8 -Mt 0 
r -t 0.100305232 -Hs 12 -Hd -2 -Ni 12 -Nx 255.00 -Ny 50.42 -Nz 0.00 -Ne -1.000000 -Nl MAC -Nw --- -Ma e7 -Md ffffffff -Ms 8 -Mt 0 
s -t 0.100755065 -Hs 11 -Hd -2 -Ni 11 -Nx 205.02 -Ny 50.46 -Nz 0.00 -Ne -1.000000 -Nl MAC -Nw --- -Ma d4 -Md 8 -Ms 9 -Mt 0 
r -t 0.100961628 -Hs 10 -Hd -2 -Ni 10 -Nx 200.00 -Ny 50.00 -Nz 0.00 -Ne -1.000000 -Nl MAC -Nw --- -Ma d4 -Md 8 -Ms 9 -Mt 0 
d -t 0.100961777 -Hs 12 -Hd -2 -Ni 12 -Nx 255.03 -Ny 50.42 -Nz 0.00 -Ne -1.000000 -Nl MAC -Nw --- -Ma d4 -Md 8 -Ms 9 -Mt 0 
s -t 0.100971628 -Hs 10 -Hd -2 -Ni 10 -Nx 200.00 -Ny 50.00 -Nz 0.00 -Ne -1.000000 -Nl MAC -Nw --- -Ma 0 -Md 9 -Ms 0 -Mt 0 
r -t 0.101173826 -Hs 11 -Hd -2 -Ni 11 -Nx 205.04 -Ny 50.46 -Nz 0.00 -Ne -1.000000 -Nl MAC -Nw --- -Ma 0 -Md 9 -Ms 0 -Mt 0 
s -t 0.101243809 -Hs 10 -Hd -2 -Ni 10 -Nx 200.00 -Ny 50.00 -Nz 0.00 -Ne -1.000000 -Nl MAC -Nw --- -Ma d4 -Md 9 -Ms 8 -Mt 0 
r -t 0.101450372 -Hs 11 -Hd -2 -Ni 11 -Nx 205.05 -Ny 50.46 -Nz 0.00 -Ne -1.000000 -Nl MAC -Nw --- -Ma d4 -Md 9 -Ms 8 -Mt 0 
d -t 0.101450538 -Hs 12 -Hd -2 -Ni 12 -Nx 255.06 -Ny 50.42 -Nz 0.00 -Ne -1.000000 -Nl MAC -Nw --- -Ma d4 -Md 9 -Ms 8 -Mt 0 
s -t 0.101460372 -Hs 11 -Hd -2 -Ni 11 -Nx 205.05 -Ny 50.46 -Nz 0.00 -Ne -1.000000 -Nl MAC -Nw --- -Ma 0 -Md 8 -Ms 0 -Mt 0 
r -t 0.101662570 -Hs 10 -Hd -2 -Ni 10 -Nx 200.00 -Ny 50.00 -Nz 0.00 -Ne -1.000000 -Nl MAC -Nw --- -Ma 0 -Md 8 -Ms 0 -Mt 0 
s -t 0.101912720 -Hs 12 -Hd -2 -Ni 12 -Nx 255.08 -Ny 50.42 -Nz 0.00 -Ne -1.000000 -Nl MAC -Nw --- -Ma d4 -Md 8 -Ms a -Mt 0 
d -t 0.102119432 -Hs 11 -Hd -2 -Ni 11 -Nx 205.09 -Ny 50.46 -Nz 0.00 -Ne -1.000000 -Nl MAC -Nw --- -Ma d4 -Md 8 -Ms a -Mt 0 
r -t 0.102119449 -Hs 10 -Hd -2 -Ni 10 -Nx 200.00 -Ny 50.00 -Nz 0.00 -Ne -1.000000 -Nl MAC -Nw --- -Ma d4 -Md 8 -Ms a -Mt 0 
s -t 0.102129449 -Hs 10 -Hd -2 -Ni 10 -Nx 200.00 -Ny 50.00 -Nz 0.00 -Ne -1.000000 -Nl MAC -Nw --- -Ma 0 -Md a -Ms 0 -Mt 0 
r -t 0.102331815 -Hs 12 -Hd -2 -Ni 12 -Nx 255.10 -Ny 50.42 -Nz 0.00 -Ne -1.000000 -Nl MAC -Nw --- -Ma 0 -Md a -Ms 0 -Mt 0 
s -t 0.102681631 -Hs 10 -Hd -2 -Ni 10 -Nx 200.00 -Ny 50.00 -Nz 0.00 -Ne -1.000000 -Nl MAC -Nw --- -Ma d4 -Md a -Ms 8 -Mt 0 
d -t 0.102888194 -Hs 11 -Hd -2 -Ni 11 -Nx 205.12 -Ny 50.47 -Nz 0.00 -Ne -1.000000 -Nl MAC -Nw --- -Ma d4 -Md a -Ms 8 -Mt 0 
r -t 0.102888360 -Hs 12 -Hd -2 -Ni 12 -Nx 255.13 -Ny 50.43 -Nz 0.00 -Ne -1.000000 -Nl MAC -Nw --- -Ma d4 -Md a -Ms 8 -Mt 0 
s -t 0.102898360 -Hs 12 -Hd -2 -Ni 12 -Nx 255.13 -Ny 50.43 -Nz 0.00 -Ne -1.000000 -Nl MAC -Nw --- -Ma 0 -Md 8 -Ms 0 -Mt 0 
r -t 0.103100726 -Hs 10 -Hd -2 -Ni 10 -Nx 200.00 -Ny 50.00 -Nz 0.00 -Ne -1.000000 -Nl MAC -Nw --- -Ma 0 -Md 8 -Ms 0 -Mt 0 
s -t 0.200083958 -Hs 10 -Hd -2 -Ni 10 -Nx 200.00 -Ny 50.00 -Nz 0.00 -Ne -1.000000 -Nl MAC -Nw --- -Ma e7 -Md ffffffff -Ms 8 -Mt 0 
r -t 0.200305082 -Hs 11 -Hd -2 -Ni 11 -Nx 209.97 -Ny 50.91 -Nz 0.00 -Ne -1.000000 -Nl MAC -Nw --- -Ma e7 -Md ffffffff -Ms 8 -Mt 0 
r -t 0.200305249 -Hs 12 -Hd -2 -Ni 12 -Nx 259.98 -Ny 50.83 -Nz 0.00 -Ne -1.000000 -Nl MAC -Nw --- -Ma e7 -Md ffffffff -Ms 8 -Mt 0 
s -t 0.300083958 -Hs 10 -Hd -2 -Ni 10 -Nx 200.00 -Ny 50.00 -Nz 0.00 -Ne -1.000000 -Nl MAC -Nw --- -Ma e7 -Md ffffffff -Ms 8 -Mt 0 
r -t 0.300305099 -Hs 11 -Hd -2 -Ni 11 -Nx 214.95 -Ny 51.36 -Nz 0.00 -Ne -1.000000 -Nl MAC -Nw --- -Ma e7 -Md ffffffff -Ms 8 -Mt 0 
r -t 0.300305265 -Hs 12 -Hd -2 -Ni 12 -Nx 264.96 -Ny 51.25 -Nz 0.00 -Ne -1.000000 -Nl MAC -Nw --- -Ma e7 -Md ffffffff -Ms 8 -Mt 0 
s -t 0.400083958 -Hs 10 -Hd -2 -Ni 10 -Nx 200.00 -Ny 50.00 -Nz 0.00 -Ne -1.000000 -Nl MAC -Nw --- -Ma e7 -Md ffffffff -Ms 8 -Mt 0 
r -t 0.400305115 -Hs 11 -Hd -2 -Ni 11 -Nx 219.93 -Ny 51.81 -Nz 0.00 -Ne -1.000000 -Nl MAC -Nw --- -Ma e7 -Md ffffffff -Ms 8 -Mt 0 
r -t 0.400305282 -Hs 12 -Hd -2 -Ni 12 -Nx 269.95 -Ny 51.66 -Nz 0.00 -Ne -1.000000 -Nl MAC -Nw --- -Ma e7 -Md ffffffff -Ms 8 -Mt 0 
s -t 0.500083958 -Hs 10 -Hd -2 -Ni 10 -Nx 200.00 -Ny 50.00 -Nz 0.00 -Ne -1.000000 -Nl MAC -Nw --- -Ma e7 -Md ffffffff -Ms 8 -Mt 0 
r -t 0.500305132 -Hs 11 -Hd -2 -Ni 11 -Nx 224.91 -Ny 52.26 -Nz 0.00 -Ne -1.000000 -Nl MAC -Nw --- -Ma e7 -Md ffffffff -Ms 8 -Mt 0 
r -t 0.500305298 -Hs 12 -Hd -2 -Ni 12 -Nx 274.93 -Ny 52.08 -Nz 0.00 -Ne -1.000000 -Nl MAC -Nw --- -Ma e7 -Md ffffffff -Ms 8 -Mt 0 
s -t 0.500726298 -Hs 12 -Hd -2 -Ni 12 -Nx 274.95 -Ny 52.08 -Nz 0.00 -Ne -1.000000 -Nl MAC -Nw --- -Ma 2a1 -Md 8 -Ms a -Mt 0 
r -t 0.500933094 -Hs 10 -Hd -2 -Ni 10 -Nx 200.00 -Ny 50.00 -Nz 0.00 -Ne -1.000000 -Nl MAC -Nw --- -Ma 2a1 -Md 8 -Ms a -Mt 0 
s -t 0.500943094 -Hs 10 -Hd -2 -Ni 10 -Nx 200.00 -Ny 50.00 -Nz 0.00 -Ne -1.000000 -Nl MAC -Nw --- -Ma 1cd -Md a -Ms 0 -Mt 0 
r -t 0.501145526 -Hs 12 -Hd -2 -Ni 12 -Nx 274.97 -Ny 52.08 -Nz 0.00 -Ne -1.000000 -Nl MAC -Nw --- -Ma 1cd -Md a -Ms 0 -Mt 0 
s -t 0.501155526 -Hs 12 -Hd -2 -Ni 12 -Nx 274.97 -Ny 52.08 -Nz 0.00 -Ne -1.000000 -Nl MAC -Nw --- -Ma d4 -Md 8 -Ms a -Mt 806 -P arp -Po REQUEST -Pms 10 -Ps 16777218 -Pmd 0 -Pd 16777216 
r -t 0.501394321 -Hs 10 -Hd -2 -Ni 10 -Nx 200.00 -Ny 50.00 -Nz 0.00 -Ne -1.000000 -Nl MAC -Nw --- -Ma d4 -Md 8 -Ms a -Mt 806 -P arp -Po REQUEST -Pms 10 -Ps 16777218 -Pmd 0 -Pd 16777216 
r -t 0.501394321 -Hs 10 -Hd -1 -Ni 10 -Nx 200.00 -Ny 50.00 -Nz 0.00 -Ne -1.000000 -Nl MAC -Nw --- -Ma d4 -Md 8 -Ms a -Mt 806 -P arp -Po REQUEST -Pms 10 -Ps 16777218 -Pmd 0 -Pd 16777216 
s -t 0.501404321 -Hs 10 -Hd -2 -Ni 10 -Nx 200.00 -Ny 50.00 -Nz 0.00 -Ne -1.000000 -Nl MAC -Nw --- -Ma 0 -Md a -Ms 0 -Mt 0 
r -t 0.501606753 -Hs 12 -Hd -2 -Ni 12 -Nx 274.99 -Ny 52.08 -Nz 0.00 -Ne -1.000000 -Nl MAC -Nw --- -Ma 0 -Md a -Ms 0 -Mt 0 
s -t 0.501796586 -Hs 11 -Hd -2 -Ni 11 -Nx 224.99 -Ny 52.27 -Nz 0.00 -Ne -1.000000 -Nl MAC -Nw --- -Ma 2a1 -Md 8 -Ms 9 -Mt 0 
r -t 0.502003216 -Hs 10 -Hd -2 -Ni 10 -Nx 200.00 -Ny 50.00 -Nz 0.00 -Ne -1.000000 -Nl MAC -Nw --- -Ma 2a1 -Md 8 -Ms 9 -Mt 0 
s -t 0.502013216 -Hs 10 -Hd -2 -Ni 10 -Nx 200.00 -Ny 50.00 -Nz 0.00 -Ne -1.000000 -Nl MAC -Nw --- -Ma 1cd -Md 9 -Ms 0 -Mt 0 
r -t 0.502215481 -Hs 11 -Hd -2 -Ni 11 -Nx 225.01 -Ny 52.27 -Nz 0.00 -Ne -1.000000 -Nl MAC -Nw --- -Ma 1cd -Md 9 -Ms 0 -Mt 0 
s -t 0.502225481 -Hs 11 -Hd -2 -Ni 11 -Nx 225.01 -Ny 52.27 -Nz 0.00 -Ne -1.000000 -Nl MAC -Nw --- -Ma d4 -Md 8 -Ms 9 -Mt 806 -P arp -Po REQUEST -Pms 9 -Ps 16777217 -Pmd 0 -Pd 16777216 
r -t 0.502464110 -Hs 10 -Hd -2 -Ni 10 -Nx 200.00 -Ny 50.00 -Nz 0.00 -Ne -1.000000 -Nl MAC -Nw --- -Ma d4 -Md 8 -Ms 9 -Mt 806 -P arp -Po REQUEST -Pms 9 -Ps 16777217 -Pmd 0 -Pd 16777216 
r -t 0.502464110 -Hs 10 -Hd -1 -Ni 10 -Nx 200.00 -Ny 50.00 -Nz 0.00 -Ne -1.000000 -Nl MAC -Nw --- -Ma d4 -Md 8 -Ms 9 -Mt 806 -P arp -Po REQUEST -Pms 9 -Ps 16777217 -Pmd 0 -Pd 16777216 
s -t 0.502474110 -Hs 10 -Hd -2 -Ni 10 -Nx 200.00 -Ny 50.00 -Nz 0.00 -Ne -1.000000 -Nl MAC -Nw --- -Ma 0 -Md 9 -Ms 0 -Mt 0 
r -t 0.502676376 -Hs 11 -Hd -2 -Ni 11 -Nx 225.03 -Ny 52.28 -Nz 0.00 -Ne -1.000000 -Nl MAC -Nw --- -Ma 0 -Md 9 -Ms 0 -Mt 0 
s -t 0.502766292 -Hs 10 -Hd -2 -Ni 10 -Nx 200.00 -Ny 50.00 -Nz 0.00 -Ne -1.000000 -Nl MAC -Nw --- -Ma 2a1 -Md a -Ms 8 -Mt 0 
r -t 0.502973088 -Hs 12 -Hd -2 -Ni 12 -Nx 275.06 -Ny 52.09 -Nz 0.00 -Ne -1.000000 -Nl MAC -Nw --- -Ma 2a1 -Md a -Ms 8 -Mt 0 
s -t 0.502983088 -Hs 12 -Hd -2 -Ni 12 -Nx 275.06 -Ny 52.09 -Nz 0.00 -Ne -1.000000 -Nl MAC -Nw --- -Ma 1cd -Md 8 -Ms 0 -Mt 0 
r -t 0.503185520 -Hs 10 -Hd -2 -Ni 10 -Nx 200.00 -Ny 50.00 -Nz 0.00 -Ne -1.000000 -Nl MAC -Nw --- -Ma 1cd -Md 8 -Ms 0 -Mt 0 
s -t 0.503195520 -Hs 10 -Hd -2 -Ni 10 -Nx 200.00 -Ny 50.00 -Nz 0.00 -Ne -1.000000 -Nl MAC -Nw --- -Ma d4 -Md a -Ms 8 -Mt 806 -P arp -Po REPLY -Pms 8 -Ps 16777216 -Pmd 10 -Pd 16777218 
r -t 0.503434316 -Hs 12 -Hd -2 -Ni 12 -Nx 275.08 -Ny 52.09 -Nz 0.00 -Ne -1.000000 -Nl MAC -Nw --- -Ma d4 -Md a -Ms 8 -Mt 806 -P arp -Po REPLY -Pms 8 -Ps 16777216 -Pmd 10 -Pd 16777218 
s -t 0.503444316 -Hs 12 -Hd -2 -Ni 12 -Nx 275.09 -Ny 52.09 -Nz 0.00 -Ne -1.000000 -Nl MAC -Nw --- -Ma 0 -Md 8 -Ms 0 -Mt 0 
r -t 0.503646748 -Hs 10 -Hd -2 -Ni 10 -Nx 200.00 -Ny 50.00 -Nz 0.00 -Ne -1.000000 -Nl MAC -Nw --- -Ma 0 -Md 8 -Ms 0 -Mt 0 
s -t 0.503976497 -Hs 12 -Hd -2 -Ni 12 -Nx 275.11 -Ny 52.09 -Nz 0.00 -Ne -1.000000 -Nl MAC -Nw --- -Ma 564 -Md 8 -Ms a -Mt 0 
d -t 0.504000000 -Hs 11 -Hd 16777216 -Ni 11 -Nx 225.10 -Ny 52.28 -Nz 0.00 -Ne -1.000000 -Nl IFQ -Nw ARP -Ma 0 -Md 0 -Ms 9 -Mt 800 -Is 20971520.0 -Id 12582912.0 -It cbr -Il 500 -If 0 -Ii 2 -Iv 31 -Pn cbr -Pi 0 -Pf 0 -Po 0 
r -t 0.504183293 -Hs 10 -Hd -2 -Ni 10 -Nx 200.00 -Ny 50.00 -Nz 0.00 -Ne -1.000000 -Nl MAC -Nw --- -Ma 564 -Md 8 -Ms a -Mt 0 
s -t 0.504193293 -Hs 10 -Hd -2 -Ni 10 -Nx 200.00 -Ny 50.00 -Nz 0.00 -Ne -1.000000 -Nl MAC -Nw --- -Ma 490 -Md a -Ms 0 -Mt 0 
r -t 0.504395726 -Hs 12 -Hd -2 -Ni 12 -Nx 275.13 -Ny 52.09 -Nz 0.00 -Ne -1.000000 -Nl MAC -Nw --- -Ma 490 -Md a -Ms 0 -Mt 0 
s -t 0.504405726 -Hs 12 -Hd 16777216 -Ni 12 -Nx 275.13 -Ny 52.09 -Nz 0.00 -Ne -1.000000 -Nl MAC -Nw --- -Ma d4 -Md 8 -Ms a -Mt 800 -Is 25165824.0 -Id 12582912.1 -It cbr -Il 1060 -If 0 -Ii 3 -Iv 31 -Pn cbr -Pi 0 -Pf 0 -Po 0 
r -t 0.505351431 -Hs 10 -Hd 16777216 -Ni 10 -Nx 200.00 -Ny 50.00 -Nz 0.00 -Ne -1.000000 -Nl MAC -Nw --- -Ma d4 -Md 8 -Ms a -Mt 800 -Is 25165824.0 -Id 12582912.1 -It cbr -Il 1000 -If 0 -Ii 3 -Iv 31 -Pn cbr -Pi 0 -Pf 1 -Po 0 
s -t 0.505361431 -Hs 10 -Hd -2 -Ni 10 -Nx 200.00 -Ny 50.00 -Nz 0.00 -Ne -1.000000 -Nl MAC -Nw --- -Ma 0 -Md a -Ms 0 -Mt 0 
+ 0.505376 10 0 cbr 1000 ------- 0 6.0.0.0 3.0.0.1 0 3
- 0.505376 10 0 cbr 1000 ------- 0 6.0.0.0 3.0.0.1 0 3
r -t 0.505563863 -Hs 12 -Hd -2 -Ni 12 -Nx 275.19 -Ny 52.10 -Nz 0.00 -Ne -1.000000 -Nl MAC -Nw --- -Ma 0 -Md a -Ms 0 -Mt 0 
s -t 0.505633697 -Hs 11 -Hd -2 -Ni 11 -Nx 225.18 -Ny 52.29 -Nz 0.00 -Ne -1.000000 -Nl MAC -Nw --- -Ma 2a1 -Md 8 -Ms 9 -Mt 0 
r -t 0.505840327 -Hs 10 -Hd -2 -Ni 10 -Nx 200.00 -Ny 50.00 -Nz 0.00 -Ne -1.000000 -Nl MAC -Nw --- -Ma 2a1 -Md 8 -Ms 9 -Mt 0 
s -t 0.505850327 -Hs 10 -Hd -2 -Ni 10 -Nx 200.00 -Ny 50.00 -Nz 0.00 -Ne -1.000000 -Nl MAC -Nw --- -Ma 1cd -Md 9 -Ms 0 -Mt 0 
r -t 0.506052593 -Hs 11 -Hd -2 -Ni 11 -Nx 225.20 -Ny 52.29 -Nz 0.00 -Ne -1.000000 -Nl MAC -Nw --- -Ma 1cd -Md 9 -Ms 0 -Mt 0 
s -t 0.506062593 -Hs 11 -Hd -2 -Ni 11 -Nx 225.20 -Ny 52.29 -Nz 0.00 -Ne -1.000000 -Nl MAC -Nw --- -Ma d4 -Md 8 -Ms 9 -Mt 806 -P arp -Po REQUEST -Pms 9 -Ps 16777217 -Pmd 0 -Pd 16777216 
r -t 0.506301223 -Hs 10 -Hd -2 -Ni 10 -Nx 200.00 -Ny 50.00 -Nz 0.00 -Ne -1.000000 -Nl MAC -Nw --- -Ma d4 -Md 8 -Ms 9 -Mt 806 -P arp -Po REQUEST -Pms 9 -Ps 16777217 -Pmd 0 -Pd 16777216 
r -t 0.506301223 -Hs 10 -Hd -1 -Ni 10 -Nx 200.00 -Ny 50.00 -Nz 0.00 -Ne -1.000000 -Nl MAC -Nw --- -Ma d4 -Md 8 -Ms 9 -Mt 806 -P arp -Po REQUEST -Pms 9 -Ps 16777217 -Pmd 0 -Pd 16777216 
s -t 0.506311223 -Hs 10 -Hd -2 -Ni 10 -Nx 200.00 -Ny 50.00 -Nz 0.00 -Ne -1.000000 -Nl MAC -Nw --- -Ma 0 -Md 9 -Ms 0 -Mt 0 
r -t 0.506513489 -Hs 11 -Hd -2 -Ni 11 -Nx 225.22 -Ny 52.29 -Nz 0.00 -Ne -1.000000 -Nl MAC -Nw --- -Ma 0 -Md 9 -Ms 0 -Mt 0 
s -t 0.506623404 -Hs 10 -Hd -1 -Ni 10 -Nx 200.00 -Ny 50.00 -Nz 0.00 -Ne -1.000000 -Nl MAC -Nw --- -Ma 0 -Md ffffffff -Ms 8 -Mt 800 -P arp -Po REQUEST -Pms 10 -Ps 16777218 -Pmd 0 -Pd 16777216 
r -t 0.506862034 -Hs 11 -Hd -1 -Ni 11 -Nx 225.24 -Ny 52.29 -Nz 0.00 -Ne -1.000000 -Nl MAC -Nw --- -Ma 0 -Md ffffffff -Ms 8 -Mt 800 -P arp -Po REQUEST -Pms 10 -Ps 16777218 -Pmd 0 -Pd 16777216 
r -t 0.506862201 -Hs 12 -Hd -1 -Ni 12 -Nx 275.26 -Ny 52.10 -Nz 0.00 -Ne -1.000000 -Nl MAC -Nw --- -Ma 0 -Md ffffffff -Ms 8 -Mt 800 -P arp -Po REQUEST -Pms 10 -Ps 16777218 -Pmd 0 -Pd 16777216 
s -t 0.507171950 -Hs 10 -Hd -2 -Ni 10 -Nx 200.00 -Ny 50.00 -Nz 0.00 -Ne -1.000000 -Nl MAC -Nw --- -Ma 2a1 -Md 9 -Ms 8 -Mt 0 
r -t 0.507378580 -Hs 11 -Hd -2 -Ni 11 -Nx 225.26 -Ny 52.30 -Nz 0.00 -Ne -1.000000 -Nl MAC -Nw --- -Ma 2a1 -Md 9 -Ms 8 -Mt 0 
s -t 0.507388580 -Hs 11 -Hd -2 -Ni 11 -Nx 225.27 -Ny 52.30 -Nz 0.00 -Ne -1.000000 -Nl MAC -Nw --- -Ma 1cd -Md 8 -Ms 0 -Mt 0 
r -t 0.507590846 -Hs 10 -Hd -2 -Ni 10 -Nx 200.00 -Ny 50.00 -Nz 0.00 -Ne -1.000000 -Nl MAC -Nw --- -Ma 1cd -Md 8 -Ms 0 -Mt 0 
s -t 0.507600846 -Hs 10 -Hd -2 -Ni 10 -Nx 200.00 -Ny 50.00 -Nz 0.00 -Ne -1.000000 -Nl MAC -Nw --- -Ma d4 -Md 9 -Ms 8 -Mt 806 -P arp -Po REPLY -Pms 8 -Ps 16777216 -Pmd 9 -Pd 16777217 
r -t 0.507839476 -Hs 11 -Hd -2 -Ni 11 -Nx 225.29 -Ny 52.30 -Nz 0.00 -Ne -1.000000 -Nl MAC -Nw --- -Ma d4 -Md 9 -Ms 8 -Mt 806 -P arp -Po REPLY -Pms 8 -Ps 16777216 -Pmd 9 -Pd 16777217 
s -t 0.507849476 -Hs 11 -Hd -2 -Ni 11 -Nx 225.29 -Ny 52.30 -Nz 0.00 -Ne -1.000000 -Nl MAC -Nw --- -Ma 0 -Md 8 -Ms 0 -Mt 0 
r -t 0.508051743 -Hs 10 -Hd -2 -Ni 10 -Nx 200.00 -Ny 50.00 -Nz 0.00 -Ne -1.000000 -Nl MAC -Nw --- -Ma 0 -Md 8 -Ms 0 -Mt 0 
s -t 0.508121743 -Hs 10 -Hd -1 -Ni 10 -Nx 200.00 -Ny 50.00 -Nz 0.00 -Ne -1.000000 -Nl MAC -Nw --- -Ma 0 -Md ffffffff -Ms 8 -Mt 800 -P arp -Po REQUEST -Pms 9 -Ps 16777217 -Pmd 0 -Pd 16777216 
r -t 0.508360373 -Hs 11 -Hd -1 -Ni 11 -Nx 225.31 -Ny 52.30 -Nz 0.00 -Ne -1.000000 -Nl MAC -Nw --- -Ma 0 -Md ffffffff -Ms 8 -Mt 800 -P arp -Po REQUEST -Pms 9 -Ps 16777217 -Pmd 0 -Pd 16777216 
r -t 0.508360539 -Hs 12 -Hd -1 -Ni 12 -Nx 275.33 -Ny 52.11 -Nz 0.00 -Ne -1.000000 -Nl MAC -Nw --- -Ma 0 -Md ffffffff -Ms 8 -Mt 800 -P arp -Po REQUEST -Pms 9 -Ps 16777217 -Pmd 0 -Pd 16777216 
s -t 0.508610288 -Hs 10 -Hd -2 -Ni 10 -Nx 200.00 -Ny 50.00 -Nz 0.00 -Ne -1.000000 -Nl MAC -Nw --- -Ma 2a1 -Md 9 -Ms 8 -Mt 0 
r -t 0.508816918 -Hs 11 -Hd -2 -Ni 11 -Nx 225.34 -Ny 52.30 -Nz 0.00 -Ne -1.000000 -Nl MAC -Nw --- -Ma 2a1 -Md 9 -Ms 8 -Mt 0 
s -t 0.508826918 -Hs 11 -Hd -2 -Ni 11 -Nx 225.34 -Ny 52.30 -Nz 0.00 -Ne -1.000000 -Nl MAC -Nw --- -Ma 1cd -Md 8 -Ms 0 -Mt 0 
r -t 0.509029185 -Hs 10 -Hd -2 -Ni 10 -Nx 200.00 -Ny 50.00 -Nz 0.00 -Ne -1.000000 -Nl MAC -Nw --- -Ma 1cd -Md 8 -Ms 0 -Mt 0 
s -t 0.509039185 -Hs 10 -Hd -2 -Ni 10 -Nx 200.00 -Ny 50.00 -Nz 0.00 -Ne -1.000000 -Nl MAC -Nw --- -Ma d4 -Md 9 -Ms 8 -Mt 806 -P arp -Po REPLY -Pms 8 -Ps 16777216 -Pmd 9 -Pd 16777217 
r -t 0.509277815 -Hs 11 -Hd -2 -Ni 11 -Nx 225.36 -Ny 52.31 -Nz 0.00 -Ne -1.000000 -Nl MAC -Nw --- -Ma d4 -Md 9 -Ms 8 -Mt 806 -P arp -Po REPLY -Pms 8 -Ps 16777216 -Pmd 9 -Pd 16777217 
s -t 0.509287815 -Hs 11 -Hd -2 -Ni 11 -Nx 225.36 -Ny 52.31 -Nz 0.00 -Ne -1.000000 -Nl MAC -Nw --- -Ma 0 -Md 8 -Ms 0 -Mt 0 
r -t 0.509490082 -Hs 10 -Hd -2 -Ni 10 -Nx 200.00 -Ny 50.00 -Nz 0.00 -Ne -1.000000 -Nl MAC -Nw --- -Ma 0 -Md 8 -Ms 0 -Mt 0 
s -t 0.509899997 -Hs 11 -Hd -2 -Ni 11 -Nx 225.39 -Ny 52.31 -Nz 0.00 -Ne -1.000000 -Nl MAC -Nw --- -Ma 3f8 -Md 8 -Ms 9 -Mt 0 
r -t 0.510106628 -Hs 10 -Hd -2 -Ni 10 -Nx 200.00 -Ny 50.00 -Nz 0.00 -Ne -1.000000 -Nl MAC -Nw --- -Ma 3f8 -Md 8 -Ms 9 -Mt 0 
s -t 0.510116628 -Hs 10 -Hd -2 -Ni 10 -Nx 200.00 -Ny 50.00 -Nz 0.00 -Ne -1.000000 -Nl MAC -Nw --- -Ma 324 -Md 9 -Ms 0 -Mt 0 
r -t 0.510318894 -Hs 11 -Hd -2 -Ni 11 -Nx 225.41 -Ny 52.31 -Nz 0.00 -Ne -1.000000 -Nl MAC -Nw --- -Ma 324 -Md 9 -Ms 0 -Mt 0 
s -t 0.510328894 -Hs 11 -Hd 16777216 -Ni 11 -Nx 225.41 -Ny 52.31 -Nz 0.00 -Ne -1.000000 -Nl MAC -Nw --- -Ma d4 -Md 8 -Ms 9 -Mt 800 -Is 20971520.0 -Id 12582912.0 -It cbr -Il 560 -If 0 -Ii 4 -Iv 31 -Pn cbr -Pi 1 -Pf 0 -Po 0 
r -t 0.510910798 -Hs 10 -Hd 16777216 -Ni 10 -Nx 200.00 -Ny 50.00 -Nz 0.00 -Ne -1.000000 -Nl MAC -Nw --- -Ma d4 -Md 8 -Ms 9 -Mt 800 -Is 20971520.0 -Id 12582912.0 -It cbr -Il 500 -If 0 -Ii 4 -Iv 31 -Pn cbr -Pi 1 -Pf 1 -Po 0 
s -t 0.510920798 -Hs 10 -Hd -2 -Ni 10 -Nx 200.00 -Ny 50.00 -Nz 0.00 -Ne -1.000000 -Nl MAC -Nw --- -Ma 0 -Md 9 -Ms 0 -Mt 0 
+ 0.510936 10 0 cbr 500 ------- 0 5.0.0.0 3.0.0.0 1 4
- 0.510936 10 0 cbr 500 ------- 0 5.0.0.0 3.0.0.0 1 4
r -t 0.511123065 -Hs 11 -Hd -2 -Ni 11 -Nx 225.45 -Ny 52.31 -Nz 0.00 -Ne -1.000000 -Nl MAC -Nw --- -Ma 0 -Md 9 -Ms 0 -Mt 0 
s -t 0.511212979 -Hs 10 -Hd -1 -Ni 10 -Nx 200.00 -Ny 50.00 -Nz 0.00 -Ne -1.000000 -Nl MAC -Nw --- -Ma 0 -Md ffffffff -Ms 8 -Mt 800 -P arp -Po REQUEST -Pms 9 -Ps 16777217 -Pmd 0 -Pd 16777216 
r -t 0.511451610 -Hs 11 -Hd -1 -Ni 11 -Nx 225.47 -Ny 52.32 -Nz 0.00 -Ne -1.000000 -Nl MAC -Nw --- -Ma 0 -Md ffffffff -Ms 8 -Mt 800 -P arp -Po REQUEST -Pms 9 -Ps 16777217 -Pmd 0 -Pd 16777216 
r -t 0.511451777 -Hs 12 -Hd -1 -Ni 12 -Nx 275.48 -Ny 52.12 -Nz 0.00 -Ne -1.000000 -Nl MAC -Nw --- -Ma 0 -Md ffffffff -Ms 8 -Mt 800 -P arp -Po REQUEST -Pms 9 -Ps 16777217 -Pmd 0 -Pd 16777216 
s -t 0.511521777 -Hs 12 -Hd -2 -Ni 12 -Nx 275.49 -Ny 52.12 -Nz 0.00 -Ne -1.000000 -Nl MAC -Nw --- -Ma 564 -Md 8 -Ms a -Mt 0 
r -t 0.511728574 -Hs 10 -Hd -2 -Ni 10 -Nx 200.00 -Ny 50.00 -Nz 0.00 -Ne -1.000000 -Nl MAC -Nw --- -Ma 564 -Md 8 -Ms a -Mt 0 
s -t 0.511738574 -Hs 10 -Hd -2 -Ni 10 -Nx 200.00 -Ny 50.00 -Nz 0.00 -Ne -1.000000 -Nl MAC -Nw --- -Ma 490 -Md a -Ms 0 -Mt 0 
r -t 0.511941007 -Hs 12 -Hd -2 -Ni 12 -Nx 275.51 -Ny 52.13 -Nz 0.00 -Ne -1.000000 -Nl MAC -Nw --- -Ma 490 -Md a -Ms 0 -Mt 0 
s -t 0.511951007 -Hs 12 -Hd 16777216 -Ni 12 -Nx 275.51 -Ny 52.13 -Nz 0.00 -Ne -1.000000 -Nl MAC -Nw --- -Ma d4 -Md 8 -Ms a -Mt 800 -Is 25165824.0 -Id 12582912.1 -It cbr -Il 1060 -If 0 -Ii 5 -Iv 31 -Pn cbr -Pi 1 -Pf 0 -Po 0 
r -t 0.512896714 -Hs 10 -Hd 16777216 -Ni 10 -Nx 200.00 -Ny 50.00 -Nz 0.00 -Ne -1.000000 -Nl MAC -Nw --- -Ma d4 -Md 8 -Ms a -Mt 800 -Is 25165824.0 -Id 12582912.1 -It cbr -Il 1000 -If 0 -Ii 5 -Iv 31 -Pn cbr -Pi 1 -Pf 1 -Po 0 
s -t 0.512906714 -Hs 10 -Hd -2 -Ni 10 -Nx 200.00 -Ny 50.00 -Nz 0.00 -Ne -1.000000 -Nl MAC -Nw --- -Ma 0 -Md a -Ms 0 -Mt 0 
+ 0.512922 10 0 cbr 1000 ------- 0 6.0.0.0 3.0.0.1 1 5
- 0.512922 10 0 cbr 1000 ------- 0 6.0.0.0 3.0.0.1 1 5
r -t 0.513109147 -Hs 12 -Hd -2 -Ni 12 -Nx 275.57 -Ny 52.13 -Nz 0.00 -Ne -1.000000 -Nl MAC -Nw --- -Ma 0 -Md a -Ms 0 -Mt 0 
s -t 0.513638981 -Hs 11 -Hd -2 -Ni 11 -Nx 225.58 -Ny 52.33 -Nz 0.00 -Ne -1.000000 -Nl MAC -Nw --- -Ma 3f8 -Md 8 -Ms 9 -Mt 0 
r -t 0.513845612 -Hs 10 -Hd -2 -Ni 10 -Nx 200.00 -Ny 50.00 -Nz 0.00 -Ne -1.000000 -Nl MAC -Nw --- -Ma 3f8 -Md 8 -Ms 9 -Mt 0 
s -t 0.513855612 -Hs 10 -Hd -2 -Ni 10 -Nx 200.00 -Ny 50.00 -Nz 0.00 -Ne -1.000000 -Nl MAC -Nw --- -Ma 324 -Md 9 -Ms 0 -Mt 0 
r -t 0.514057879 -Hs 11 -Hd -2 -Ni 11 -Nx 225.60 -Ny 52.33 -Nz 0.00 -Ne -1.000000 -Nl MAC -Nw --- -Ma 324 -Md 9 -Ms 0 -Mt 0 
s -t 0.514067879 -Hs 11 -Hd 16777216 -Ni 11 -Nx 225.60 -Ny 52.33 -Nz 0.00 -Ne -1.000000 -Nl MAC -Nw --- -Ma d4 -Md 8 -Ms 9 -Mt 800 -Is 20971520.0 -Id 12582912.0 -It cbr -Il 560 -If 0 -Ii 6 -Iv 31 -Pn cbr -Pi 2 -Pf 0 -Po 0 
r -t 0.514649783 -Hs 10 -Hd 16777216 -Ni 10 -Nx 200.00 -Ny 50.00 -Nz 0.00 -Ne -1.000000 -Nl MAC -Nw --- -Ma d4 -Md 8 -Ms 9 -Mt 800 -Is 20971520.0 -Id 12582912.0 -It cbr -Il 500 -If 0 -Ii 6 -Iv 31 -Pn cbr -Pi 2 -Pf 1 -Po 0 
s -t 0.514659783 -Hs 10 -Hd -2 -Ni 10 -Nx 200.00 -Ny 50.00 -Nz 0.00 -Ne -1.000000 -Nl MAC -Nw --- -Ma 0 -Md 9 -Ms 0 -Mt 0 
+ 0.514675 10 0 cbr 500 ------- 0 5.0.0.0 3.0.0.0 2 6
- 0.514675 10 0 cbr 500 ------- 0 5.0.0.0 3.0.0.0 2 6
r -t 0.514862051 -Hs 11 -Hd -2 -Ni 11 -Nx 225.64 -Ny 52.33 -Nz 0.00 -Ne -1.000000 -Nl MAC -Nw --- -Ma 0 -Md 9 -Ms 0 -Mt 0 
s -t 0.515172051 -Hs 11 -Hd -2 -Ni 11 -Nx 225.65 -Ny 52.33 -Nz 0.00 -Ne -1.000000 -Nl MAC -Nw --- -Ma 3f8 -Md 8 -Ms 9 -Mt 0 
r -t 0.515378682 -Hs 10 -Hd -2 -Ni 10 -Nx 200.00 -Ny 50.00 -Nz 0.00 -Ne -1.000000 -Nl MAC -Nw --- -Ma 3f8 -Md 8 -Ms 9 -Mt 0 
s -t 0.515388682 -Hs 10 -Hd -2 -Ni 10 -Nx 200.00 -Ny 50.00 -Nz 0.00 -Ne -1.000000 -Nl MAC -Nw --- -Ma 324 -Md 9 -Ms 0 -Mt 0 
r -t 0.515590950 -Hs 11 -Hd -2 -Ni 11 -Nx 225.67 -Ny 52.33 -Nz 0.00 -Ne -1.000000 -Nl MAC -Nw --- -Ma 324 -Md 9 -Ms 0 -Mt 0 
s -t 0.515600950 -Hs 11 -Hd 16777216 -Ni 11 -Nx 225.67 -Ny 52.33 -Nz 0.00 -Ne -1.000000 -Nl MAC -Nw --- -Ma d4 -Md 8 -Ms 9 -Mt 800 -Is 20971520.0 -Id 12582912.0 -It cbr -Il 560 -If 0 -Ii 7 -Iv 31 -Pn cbr -Pi 3 -Pf 0 -Po 0 
r -t 0.516182854 -Hs 10 -Hd 16777216 -Ni 10 -Nx 200.00 -Ny 50.00 -Nz 0.00 -Ne -1.000000 -Nl MAC -Nw --- -Ma d4 -Md 8 -Ms 9 -Mt 800 -Is 20971520.0 -Id 12582912.0 -It cbr -Il 500 -If 0 -Ii 7 -Iv 31 -Pn cbr -Pi 3 -Pf 1 -Po 0 
s -t 0.516192854 -Hs 10 -Hd -2 -Ni 10 -Nx 200.00 -Ny 50.00 -Nz 0.00 -Ne -1.000000 -Nl MAC -Nw --- -Ma 0 -Md 9 -Ms 0 -Mt 0 
+ 0.516208 10 0 cbr 500 ------- 0 5.0.0.0 3.0.0.0 3 7
- 0.516208 10 0 cbr 500 ------- 0 5.0.0.0 3.0.0.0 3 7
r -t 0.516395122 -Hs 11 -Hd -2 -Ni 11 -Nx 225.71 -Ny 52.34 -Nz 0.00 -Ne -1.000000 -Nl MAC -Nw --- -Ma 0 -Md 9 -Ms 0 -Mt 0 
s -t 0.516705288 -Hs 12 -Hd -2 -Ni 12 -Nx 275.75 -Ny 52.15 -Nz 0.00 -Ne -1.000000 -Nl MAC -Nw --- -Ma 564 -Md 8 -Ms a -Mt 0 
r -t 0.516912086 -Hs 10 -Hd -2 -Ni 10 -Nx 200.00 -Ny 50.00 -Nz 0.00 -Ne -1.000000 -Nl MAC -Nw --- -Ma 564 -Md 8 -Ms a -Mt 0 
s -t 0.516922086 -Hs 10 -Hd -2 -Ni 10 -Nx 200.00 -Ny 50.00 -Nz 0.00 -Ne -1.000000 -Nl MAC -Nw --- -Ma 490 -Md a -Ms 0 -Mt 0 
r -t 0.517124521 -Hs 12 -Hd -2 -Ni 12 -Nx 275.77 -Ny 52.15 -Nz 0.00 -Ne -1.000000 -Nl MAC -Nw --- -Ma 490 -Md a -Ms 0 -Mt 0 
s -t 0.517134521 -Hs 12 -Hd 16777216 -Ni 12 -Nx 275.77 -Ny 52.15 -Nz 0.00 -Ne -1.000000 -Nl MAC -Nw --- -Ma d4 -Md 8 -Ms a -Mt 800 -Is 25165824.0 -Id 12582912.1 -It cbr -Il 1060 -If 0 -Ii 8 -Iv 31 -Pn cbr -Pi 2 -Pf 0 -Po 0 
r -t 0.518080228 -Hs 10 -Hd 16777216 -Ni 10 -Nx 200.00 -Ny 50.00 -Nz 0.00 -Ne -1.000000 -Nl MAC -Nw --- -Ma d4 -Md 8 -Ms a -Mt 800 -Is 25165824.0 -Id 12582912.1 -It cbr -Il 1000 -If 0 -Ii 8 -Iv 31 -Pn cbr -Pi 2 -Pf 1 -Po 0 
s -t 0.518090228 -Hs 10 -Hd -2 -Ni 10 -Nx 200.00 -Ny 50.00 -Nz 0.00 -Ne -1.000000 -Nl MAC -Nw --- -Ma 0 -Md a -Ms 0 -Mt 0 
+ 0.518105 10 0 cbr 1000 ------- 0 6.0.0.0 3.0.0.1 2 8
- 0.518105 10 0 cbr 1000 ------- 0 6.0.0.0 3.0.0.1 2 8
r -t 0.518292663 -Hs 12 -Hd -2 -Ni 12 -Nx 275.83 -Ny 52.15 -Nz 0.00 -Ne -1.000000 -Nl MAC -Nw --- -Ma 0 -Md a -Ms 0 -Mt 0 
s -t 0.518462496 -Hs 11 -Hd -2 -Ni 11 -Nx 225.82 -Ny 52.35 -Nz 0.00 -Ne -1.000000 -Nl MAC -Nw --- -Ma 3f8 -Md 8 -Ms 9 -Mt 0 
r -t 0.518669128 -Hs 10 -Hd -2 -Ni 10 -Nx 200.00 -Ny 50.00 -Nz 0.00 -Ne -1.000000 -Nl MAC -Nw --- -Ma 3f8 -Md 8 -Ms 9 -Mt 0 
s -t 0.518679128 -Hs 10 -Hd -2 -Ni 10 -Nx 200.00 -Ny 50.00 -Nz 0.00 -Ne -1.000000 -Nl MAC -Nw --- -Ma 324 -Md 9 -Ms 0 -Mt 0 
r -t 0.518881396 -Hs 11 -Hd -2 -Ni 11 -Nx 225.84 -Ny 52.35 -Nz 0.00 -Ne -1.000000 -Nl MAC -Nw --- -Ma 324 -Md 9 -Ms 0 -Mt 0 
s -t 0.518891396 -Hs 11 -Hd 16777216 -Ni 11 -Nx 225.84 -Ny 52.35 -Nz 0.00 -Ne -1.000000 -Nl MAC -Nw --- -Ma d4 -Md 8 -Ms 9 -Mt 800 -Is 20971520.0 -Id 12582912.0 -It cbr -Il 560 -If 0 -Ii 9 -Iv 31 -Pn cbr -Pi 4 -Pf 0 -Po 0 
r -t 0.519473301 -Hs 10 -Hd 16777216 -Ni 10 -Nx 200.00 -Ny 50.00 -Nz 0.00 -Ne -1.000000 -Nl MAC -Nw --- -Ma d4 -Md 8 -Ms 9 -Mt 800 -Is 20971520.0 -Id 12582912.0 -It cbr -Il 500 -If 0 -Ii 9 -Iv 31 -Pn cbr -Pi 4 -Pf 1 -Po 0 
s -t 0.519483301 -Hs 10 -Hd -2 -Ni 10 -Nx 200.00 -Ny 50.00 -Nz 0.00 -Ne -1.000000 -Nl MAC -Nw --- -Ma 0 -Md 9 -Ms 0 -Mt 0 
+ 0.519498 10 0 cbr 500 ------- 0 5.0.0.0 3.0.0.0 4 9
- 0.519498 10 0 cbr 500 ------- 0 5.0.0.0 3.0.0.0 4 9
r -t 0.519685569 -Hs 11 -Hd -2 -Ni 11 -Nx 225.88 -Ny 52.35 -Nz 0.00 -Ne -1.000000 -Nl MAC -Nw --- -Ma 0 -Md 9 -Ms 0 -Mt 0 
s -t 0.520395000 -Hs 11 -Hd -2 -Ni 11 -Nx 225.91 -Ny 52.36 -Nz 0.00 -Ne -1.000000 -Nl MAC -Nw --- -Ma 3f8 -Md 8 -Ms 9 -Mt 0 
r 0.520476 10 0 cbr 1000 ------- 0 6.0.0.0 3.0.0.1 0 3
+ 0.520476 0 5 cbr 1000 ------- 0 6.0.0.0 3.0.0.1 0 3
- 0.520476 0 5 cbr 1000 ------- 0 6.0.0.0 3.0.0.1 0 3
r -t 0.520601632 -Hs 10 -Hd -2 -Ni 10 -Nx 200.00 -Ny 50.00 -Nz 0.00 -Ne -1.000000 -Nl MAC -Nw --- -Ma 3f8 -Md 8 -Ms 9 -Mt 0 
s -t 0.520611632 -Hs 10 -Hd -2 -Ni 10 -Nx 200.00 -Ny 50.00 -Nz 0.00 -Ne -1.000000 -Nl MAC -Nw --- -Ma 324 -Md 9 -Ms 0 -Mt 0 
r -t 0.520813901 -Hs 11 -Hd -2 -Ni 11 -Nx 225.93 -Ny 52.36 -Nz 0.00 -Ne -1.000000 -Nl MAC -Nw --- -Ma 324 -Md 9 -Ms 0 -Mt 0 
s -t 0.520823901 -Hs 11 -Hd 16777216 -Ni 11 -Nx 225.93 -Ny 52.36 -Nz 0.00 -Ne -1.000000 -Nl MAC -Nw --- -Ma d4 -Md 8 -Ms 9 -Mt 800 -Is 20971520.0 -Id 12582912.0 -It cbr -Il 560 -If 0 -Ii 10 -Iv 31 -Pn cbr -Pi 5 -Pf 0 -Po 0 
r 0.520889 0 5 cbr 1000 ------- 0 6.0.0.0 3.0.0.1 0 3
+ 0.520889 5 6 cbr 1000 ------- 0 6.0.0.0 3.0.0.1 0 3
- 0.520889 5 6 cbr 1000 ------- 0 6.0.0.0 3.0.0.1 0 3
r -t 0.521405806 -Hs 10 -Hd 16777216 -Ni 10 -Nx 200.00 -Ny 50.00 -Nz 0.00 -Ne -1.000000 -Nl MAC -Nw --- -Ma d4 -Md 8 -Ms 9 -Mt 800 -Is 20971520.0 -Id 12582912.0 -It cbr -Il 500 -If 0 -Ii 10 -Iv 31 -Pn cbr -Pi 5 -Pf 1 -Po 0 
s -t 0.521415806 -Hs 10 -Hd -2 -Ni 10 -Nx 200.00 -Ny 50.00 -Nz 0.00 -Ne -1.000000 -Nl MAC -Nw --- -Ma 0 -Md 9 -Ms 0 -Mt 0 
+ 0.521431 10 0 cbr 500 ------- 0 5.0.0.0 3.0.0.0 5 10
- 0.521431 10 0 cbr 500 ------- 0 5.0.0.0 3.0.0.0 5 10
r -t 0.521618074 -Hs 11 -Hd -2 -Ni 11 -Nx 225.97 -Ny 52.36 -Nz 0.00 -Ne -1.000000 -Nl MAC -Nw --- -Ma 0 -Md 9 -Ms 0 -Mt 0 
s -t 0.524095000 -Hs 12 -Hd -2 -Ni 12 -Nx 276.11 -Ny 52.18 -Nz 0.00 -Ne -1.000000 -Nl MAC -Nw --- -Ma 564 -Md 8 -Ms a -Mt 0 
r -t 0.524301799 -Hs 10 -Hd -2 -Ni 10 -Nx 200.00 -Ny 50.00 -Nz 0.00 -Ne -1.000000 -Nl MAC -Nw --- -Ma 564 -Md 8 -Ms a -Mt 0 
s -t 0.524311799 -Hs 10 -Hd -2 -Ni 10 -Nx 200.00 -Ny 50.00 -Nz 0.00 -Ne -1.000000 -Nl MAC -Nw --- -Ma 490 -Md a -Ms 0 -Mt 0 
r -t 0.524514235 -Hs 12 -Hd -2 -Ni 12 -Nx 276.14 -Ny 52.18 -Nz 0.00 -Ne -1.000000 -Nl MAC -Nw --- -Ma 490 -Md a -Ms 0 -Mt 0 
s -t 0.524524235 -Hs 12 -Hd 16777216 -Ni 12 -Nx 276.14 -Ny 52.18 -Nz 0.00 -Ne -1.000000 -Nl MAC -Nw --- -Ma d4 -Md 8 -Ms a -Mt 800 -Is 25165824.0 -Id 12582912.1 -It cbr -Il 1060 -If 0 -Ii 11 -Iv 31 -Pn cbr -Pi 3 -Pf 0 -Po 0 
r -t 0.525469943 -Hs 10 -Hd 16777216 -Ni 10 -Nx 200.00 -Ny 50.00 -Nz 0.00 -Ne -1.000000 -Nl MAC -Nw --- -Ma d4 -Md 8 -Ms a -Mt 800 -Is 25165824.0 -Id 12582912.1 -It cbr -Il 1000 -If 0 -Ii 11 -Iv 31 -Pn cbr -Pi 3 -Pf 1 -Po 0 
s -t 0.525479943 -Hs 10 -Hd -2 -Ni 10 -Nx 200.00 -Ny 50.00 -Nz 0.00 -Ne -1.000000 -Nl MAC -Nw --- -Ma 0 -Md a -Ms 0 -Mt 0 
+ 0.525495 10 0 cbr 1000 ------- 0 6.0.0.0 3.0.0.1 3 11
- 0.525495 10 0 cbr 1000 ------- 0 6.0.0.0 3.0.0.1 3 11
r -t 0.525682379 -Hs 12 -Hd -2 -Ni 12 -Nx 276.19 -Ny 52.18 -Nz 0.00 -Ne -1.000000 -Nl MAC -Nw --- -Ma 0 -Md a -Ms 0 -Mt 0 
r 0.525986 10 0 cbr 500 ------- 0 5.0.0.0 3.0.0.0 1 4
+ 0.525986 0 5 cbr 500 ------- 0 5.0.0.0 3.0.0.0 1 4
- 0.525986 0 5 cbr 500 ------- 0 5.0.0.0 3.0.0.0 1 4
s -t 0.526172213 -Hs 11 -Hd -2 -Ni 11 -Nx 226.20 -Ny 52.38 -Nz 0.00 -Ne -1.000000 -Nl MAC -Nw --- -Ma 3f8 -Md 8 -Ms 9 -Mt 0 
r -t 0.526378846 -Hs 10 -Hd -2 -Ni 10 -Nx 200.00 -Ny 50.00 -Nz 0.00 -Ne -1.000000 -Nl MAC -Nw --- -Ma 3f8 -Md 8 -Ms 9 -Mt 0 
s -t 0.526388846 -Hs 10 -Hd -2 -Ni 10 -Nx 200.00 -Ny 50.00 -Nz 0.00 -Ne -1.000000 -Nl MAC -Nw --- -Ma 324 -Md 9 -Ms 0 -Mt 0 
r 0.526392 0 5 cbr 500 ------- 0 5.0.0.0 3.0.0.0 1 4
+ 0.526392 5 6 cbr 500 ------- 0 5.0.0.0 3.0.0.0 1 4
- 0.526392 5 6 cbr 500 ------- 0 5.0.0.0 3.0.0.0 1 4
r -t 0.526591115 -Hs 11 -Hd -2 -Ni 11 -Nx 226.22 -Ny 52.38 -Nz 0.00 -Ne -1.000000 -Nl MAC -Nw --- -Ma 324 -Md 9 -Ms 0 -Mt 0 
s -t 0.526601115 -Hs 11 -Hd 16777216 -Ni 11 -Nx 226.22 -Ny 52.38 -Nz 0.00 -Ne -1.000000 -Nl MAC -Nw --- -Ma d4 -Md 8 -Ms 9 -Mt 800 -Is 20971520.0 -Id 12582912.0 -It cbr -Il 560 -If 0 -Ii 12 -Iv 31 -Pn cbr -Pi 6 -Pf 0 -Po 0 
r -t 0.527183021 -Hs 10 -Hd 16777216 -Ni 10 -Nx 200.00 -Ny 50.00 -Nz 0.00 -Ne -1.000000 -Nl MAC -Nw --- -Ma d4 -Md 8 -Ms 9 -Mt 800 -Is 20971520.0 -Id 12582912.0 -It cbr -Il 500 -If 0 -Ii 12 -Iv 31 -Pn cbr -Pi 6 -Pf 1 -Po 0 
s -t 0.527193021 -Hs 10 -Hd -2 -Ni 10 -Nx 200.00 -Ny 50.00 -Nz 0.00 -Ne -1.000000 -Nl MAC -Nw --- -Ma 0 -Md 9 -Ms 0 -Mt 0 
+ 0.527208 10 0 cbr 500 ------- 0 5.0.0.0 3.0.0.0 6 12
- 0.527208 10 0 cbr 500 ------- 0 5.0.0.0 3.0.0.0 6 12
r -t 0.527395291 -Hs 11 -Hd -2 -Ni 11 -Nx 226.26 -Ny 52.39 -Nz 0.00 -Ne -1.000000 -Nl MAC -Nw --- -Ma 0 -Md 9 -Ms 0 -Mt 0 
r 0.528022 10 0 cbr 1000 ------- 0 6.0.0.0 3.0.0.1 1 5
+ 0.528022 0 5 cbr 1000 ------- 0 6.0.0.0 3.0.0.1 1 5
- 0.528022 0 5 cbr 1000 ------- 0 6.0.0.0 3.0.0.1 1 5
s -t 0.528065291 -Hs 11 -Hd -2 -Ni 11 -Nx 226.29 -Ny 52.39 -Nz 0.00 -Ne -1.000000 -Nl MAC -Nw --- -Ma 3f8 -Md 8 -Ms 9 -Mt 0 
r -t 0.528271925 -Hs 10 -Hd -2 -Ni 10 -Nx 200.00 -Ny 50.00 -Nz 0.00 -Ne -1.000000 -Nl MAC -Nw --- -Ma 3f8 -Md 8 -Ms 9 -Mt 0 
s -t 0.528281925 -Hs 10 -Hd -2 -Ni 10 -Nx 200.00 -Ny 50.00 -Nz 0.00 -Ne -1.000000 -Nl MAC -Nw --- -Ma 324 -Md 9 -Ms 0 -Mt 0 
r 0.528435 0 5 cbr 1000 ------- 0 6.0.0.0 3.0.0.1 1 5
+ 0.528435 5 6 cbr 1000 ------- 0 6.0.0.0 3.0.0.1 1 5
- 0.528435 5 6 cbr 1000 ------- 0 6.0.0.0 3.0.0.1 1 5
r -t 0.528484194 -Hs 11 -Hd -2 -Ni 11 -Nx 226.32 -Ny 52.39 -Nz 0.00 -Ne -1.000000 -Nl MAC -Nw --- -Ma 324 -Md 9 -Ms 0 -Mt 0 
s -t 0.528494194 -Hs 11 -Hd 16777216 -Ni 11 -Nx 226.32 -Ny 52.39 -Nz 0.00 -Ne -1.000000 -Nl MAC -Nw --- -Ma d4 -Md 8 -Ms 9 -Mt 800 -Is 20971520.0 -Id 12582912.0 -It cbr -Il 560 -If 0 -Ii 13 -Iv 31 -Pn cbr -Pi 7 -Pf 0 -Po 0 
r -t 0.529076101 -Hs 10 -Hd 16777216 -Ni 10 -Nx 200.00 -Ny 50.00 -Nz 0.00 -Ne -1.000000 -Nl MAC -Nw --- -Ma d4 -Md 8 -Ms 9 -Mt 800 -Is 20971520.0 -Id 12582912.0 -It cbr -Il 500 -If 0 -Ii 13 -Iv 31 -Pn cbr -Pi 7 -Pf 1 -Po 0 
s -t 0.529086101 -Hs 10 -Hd -2 -Ni 10 -Nx 200.00 -Ny 50.00 -Nz 0.00 -Ne -1.000000 -Nl MAC -Nw --- -Ma 0 -Md 9 -Ms 0 -Mt 0 
+ 0.529101 10 0 cbr 500 ------- 0 5.0.0.0 3.0.0.0 7 13
- 0.529101 10 0 cbr 500 ------- 0 5.0.0.0 3.0.0.0 7 13
r -t 0.529288371 -Hs 11 -Hd -2 -Ni 11 -Nx 226.36 -Ny 52.40 -Nz 0.00 -Ne -1.000000 -Nl MAC -Nw --- -Ma 0 -Md 9 -Ms 0 -Mt 0 
r 0.529725 10 0 cbr 500 ------- 0 5.0.0.0 3.0.0.0 2 6
+ 0.529725 0 5 cbr 500 ------- 0 5.0.0.0 3.0.0.0 2 6
- 0.529725 0 5 cbr 500 ------- 0 5.0.0.0 3.0.0.0 2 6
r 0.530131 0 5 cbr 500 ------- 0 5.0.0.0 3.0.0.0 2 6
+ 0.530131 5 6 cbr 500 ------- 0 5.0.0.0 3.0.0.0 2 6
- 0.530131 5 6 cbr 500 ------- 0 5.0.0.0 3.0.0.0 2 6
r 0.530891 5 6 cbr 1000 ------- 0 6.0.0.0 3.0.0.1 0 3
+ 0.530891 6 7 cbr 1000 ------- 0 6.0.0.0 3.0.0.1 0 3
- 0.530891 6 7 cbr 1000 ------- 0 6.0.0.0 3.0.0.1 0 3
r 0.531258 10 0 cbr 500 ------- 0 5.0.0.0 3.0.0.0 3 7
+ 0.531258 0 5 cbr 500 ------- 0 5.0.0.0 3.0.0.0 3 7
- 0.531258 0 5 cbr 500 ------- 0 5.0.0.0 3.0.0.0 3 7
r 0.531664 0 5 cbr 500 ------- 0 5.0.0.0 3.0.0.0 3 7
+ 0.531664 5 6 cbr 500 ------- 0 5.0.0.0 3.0.0.0 3 7
- 0.531664 5 6 cbr 500 ------- 0 5.0.0.0 3.0.0.0 3 7
s -t 0.532095000 -Hs 12 -Hd -2 -Ni 12 -Nx 276.51 -Ny 52.21 -Nz 0.00 -Ne -1.000000 -Nl MAC -Nw --- -Ma 564 -Md 8 -Ms a -Mt 0 