n -t * -a 0.0.0  -s 0 -x 200 -y 100 -Z 0  -z 20 -v circle -c black
n -t * -a 0.0.1  -s 1 -x 100 -y 100 -Z 0  -z 10 -v circle -c black
n -t * -a 0.0.2  -s 2 -x 390.41396255624198 -y 287.46868275919405 -Z 0.0  -z 5 -v circle -c black
n -t * -a 0.0.2  -s 2 -x 390.41396255624198 -y 287.46868275919405 -Z 0.0  -z 5 -v circle -c black
n -t * -a 0.0.2  -s 2 -x 390.41396255624198 -y 287.46868275919405 -Z 0.0  -z 5 -v circle -c black
n -t * -a 0.0.2  -s 2 -x 390.41396255624198 -y 287.46868275919405 -Z 0.0  -z 5 -v circle -c black
n -t * -a 0.0.2  -s 2 -x 390.41396255624198 -y 287.46868275919405 -Z 0.0  -z 5 -v circle -c black
n -t * -a 0.0.2  -s 2 -x 390.41396255624198 -y 287.46868275919405 -Z 0.0  -z 5 -v circle -c black
n -t * -a 0.0.2  -s 2 -x 390.41396255624198 -y 287.46868275919405 -Z 0.0  -z 5 -v circle -c black
n -t * -a 0.0.2  -s 2 -x 390.41396255624198 -y 287.46868275919405 -Z 0.0  -z 5 -v circle -c black
n -t * -a 0.0.2  -s 2 -x 390.41396255624198 -y 287.46868275919405 -Z 0.0  -z 5 -v circle -c black
n -t * -a 0.0.2  -s 2 -x 390.41396255624198 -y 287.46868275919405 -Z 0.0  -z 5 -v circle -c black
n -t * -a 0.0.2  -s 2 -x 390.41396255624198 -y 287.46868275919405 -Z 0.0  -z 5 -v circle -c black
n -t * -a 0.0.2  -s 2 -x 390.41396255624198 -y 287.46868275919405 -Z 0.0  -z 5 -v circle -c black
n -t * -a 0.0.2  -s 2 -x 390.41396255624198 -y 287.46868275919405 -Z 0.0  -z 5 -v circle -c black
n -t * -a 0.0.2  -s 2 -x 390.41396255624198 -y 287.46868275919405 -Z 0.0  -z 5 -v circle -c black
n -t * -a 0.0.2  -s 2 -x 390.41396255624198 -y 287.46868275919405 -Z 0.0  -z 5 -v circle -c black
n -t * -a 0.0.2  -s 2 -x 390.41396255624198 -y 287.46868275919405 -Z 0.0  -z 5 -v circle -c black
n -t * -a 0.0.2  -s 2 -x 390.41396255624198 -y 287.46868275919405 -Z 0.0  -z 5 -v circle -c black
n -t * -a 0.0.2  -s 2 -x 390.41396255624198 -y 287.46868275919405 -Z 0.0  -z 5 -v circle -c black
n -t * -a 0.0.2  -s 2 -x 390.41396255624198 -y 287.46868275919405 -Z 0.0  -z 5 -v circle -c black
n -t * -a 0.0.2  -s 2 -x 390.41396255624198 -y 287.46868275919405 -Z 0.0  -z 5 -v circle -c black
n -t * -a 1.0.0  -s 22 -x 300 -y 100 -Z 0  -z 10 -v circle -c black
n -t * -a 2.0.0  -s 23 -x 350 -y 100 -Z 0  -z 10 -v circle -c black
n -t * -a 4.0.0  -s 24 -x 400 -y 100 -Z 0  -z 5 -v circle -c black
n -t * -a 3.0.0  -s 45 -x 200 -y 50 -Z 0  -z 10 -v circle -c black
V -t * -v 1.0a5 -a 0
W -t * -x 800 -y 800
A -t * -n 3 -p 0 -o 0xffffffff -c 31 -a 1
A -t * -h 1 -m 1023 -s 22
A -t * -h 2 -m 2047 -s 11
A -t * -h 3 -m 2047 -s 0
c -t * -i 1 -n Blue
c -t * -i 2 -n Red
n -t * -a 0.0.17 -s 17 -S UP -v circle -c red -i red -x 336.05386977365885 -y 157.38928588451319 -Z 0.0
n -t * -a 0.0.0 -s 0 -S UP -v circle -c yellow -i yellow -x 200 -y 100 -Z 0
n -t * -a 0.0.18 -s 18 -S UP -v circle -c red -i red -x 341.72786101313676 -y 320.1600477891788 -Z 0.0
n -t * -a 0.0.1 -s 1 -S UP -v circle -c blue -i blue -x 100 -y 100 -Z 0
n -t * -a 0.0.20 -s 20 -S UP -v circle -c red -i red -x 116.79448614213359 -y 214.9285908392298 -Z 0.0
n -t * -a 0.0.19 -s 19 -S UP -v circle -c red -i red -x 79.923192728275055 -y 369.10018411888751 -Z 0.0
n -t * -a 0.0.2 -s 2 -S UP -v circle -c red -i red -x 390.41396255624198 -y 287.46868275919405 -Z 0.0
n -t * -a 0.0.21 -s 21 -S UP -v circle -c red -i red -x 354.8262349352363 -y 314.53055651603762 -Z 0.0
n -t * -a 0.0.3 -s 3 -S UP -v circle -c red -i red -x 136.15113377391879 -y 392.1053382531299 -Z 0.0
n -t * -a 1.0.0 -s 22 -S UP -v circle -c blue -i blue -x 300 -y 100 -Z 0
n -t * -a 0.0.4 -s 4 -S UP -v circle -c red -i red -x 364.42002035417596 -y 207.28209263518551 -Z 0.0
n -t * -a 2.0.0 -s 23 -S UP -v circle -c blue -i blue -x 350 -y 100 -Z 0
n -t * -a 0.0.5 -s 5 -S UP -v circle -c red -i red -x 290.13091956271364 -y 80.365090528673065 -Z 0.0
n -t * -a 4.0.0 -s 24 -S UP -v circle -c black -i black -x 400 -y 100 -Z 0
n -t * -a 0.0.6 -s 6 -S UP -v circle -c red -i red -x 96.076515408268435 -y 257.99446676764381 -Z 0.0
n -t * -a 0.0.7 -s 7 -S UP -v circle -c red -i red -x 363.00296378927447 -y 190.81240633540435 -Z 0.0
n -t * -a 0.0.8 -s 8 -S UP -v circle -c red -i red -x 334.11327914060712 -y 91.882516183835691 -Z 0.0
n -t * -a 3.0.0 -s 45 -S UP -v circle -c red -i red -x 200 -y 50 -Z 0
n -t * -a 0.0.9 -s 9 -S UP -v circle -c red -i red -x 119.44950172652001 -y 387.77551762190438 -Z 0.0
n -t * -a 0.0.10 -s 10 -S UP -v circle -c red -i red -x 393.12467134703166 -y 346.35132956148652 -Z 0.0
n -t * -a 0.0.11 -s 11 -S UP -v circle -c red -i red -x 326.79593990407699 -y 309.36196782130838 -Z 0.0
n -t * -a 0.0.12 -s 12 -S UP -v circle -c red -i red -x 246.5931727302229 -y 191.45407685612054 -Z 0.0
n -t * -a 0.0.13 -s 13 -S UP -v circle -c red -i red -x 268.66972081766914 -y 231.9977825656523 -Z 0.0
n -t * -a 0.0.14 -s 14 -S UP -v circle -c red -i red -x 236.73158091806414 -y 347.68048990409841 -Z 0.0
n -t * -a 0.0.15 -s 15 -S UP -v circle -c red -i red -x 265.99381818249537 -y 58.102193199145702 -Z 0.0
n -t * -a 0.0.16 -s 16 -S UP -v circle -c red -i red -x 73.561098041739825 -y 191.37478752125742 -Z 0.0
l -t * -s 1 -d 0 -S UP -r 622000000 -D 0.014999999999999999 -c black
l -t * -s 0 -d 22 -S UP -r 622000000 -D 0.00040000000000000002 -c black
l -t * -s 22 -d 23 -S UP -r 4976000000 -D 0.01 -c black
l -t * -s 23 -d 24 -S UP -r 80000000 -D 0.014999999999999999 -c black
l -t * -s 45 -d 23 -S UP -r 80000000 -D 0.014999999999999999 -c black
+ -t 0.100083958 -s 45 -d -1 -p CM8 -e 64 -c 2 -a 0 -i 0 -k MAC 
- -t 0.100083958 -s 45 -d -1 -p CM8 -e 64 -c 2 -a 0 -i 0 -k MAC
h -t 0.100083958 -s 45 -d -1 -p CM8 -e 64 -c 2 -a 0 -i 0 -k MAC
+ -t 0.200083958 -s 45 -d -1 -p CM8 -e 64 -c 2 -a 0 -i 0 -k MAC 
- -t 0.200083958 -s 45 -d -1 -p CM8 -e 64 -c 2 -a 0 -i 0 -k MAC
h -t 0.200083958 -s 45 -d -1 -p CM8 -e 64 -c 2 -a 0 -i 0 -k MAC
+ -t 0.300083958 -s 45 -d -1 -p CM8 -e 64 -c 2 -a 0 -i 0 -k MAC 
- -t 0.300083958 -s 45 -d -1 -p CM8 -e 64 -c 2 -a 0 -i 0 -k MAC
h -t 0.300083958 -s 45 -d -1 -p CM8 -e 64 -c 2 -a 0 -i 0 -k MAC
+ -t 0.400083958 -s 45 -d -1 -p CM8 -e 64 -c 2 -a 0 -i 0 -k MAC 
- -t 0.400083958 -s 45 -d -1 -p CM8 -e 64 -c 2 -a 0 -i 0 -k MAC
h -t 0.400083958 -s 45 -d -1 -p CM8 -e 64 -c 2 -a 0 -i 0 -k MAC
+ -t 0.500083958 -s 45 -d -1 -p CM8 -e 64 -c 2 -a 0 -i 0 -k MAC 
- -t 0.500083958 -s 45 -d -1 -p CM8 -e 64 -c 2 -a 0 -i 0 -k MAC
h -t 0.500083958 -s 45 -d -1 -p CM8 -e 64 -c 2 -a 0 -i 0 -k MAC
+ -t 0.600083958 -s 45 -d -1 -p CM8 -e 64 -c 2 -a 0 -i 0 -k MAC 
- -t 0.600083958 -s 45 -d -1 -p CM8 -e 64 -c 2 -a 0 -i 0 -k MAC
h -t 0.600083958 -s 45 -d -1 -p CM8 -e 64 -c 2 -a 0 -i 0 -k MAC
+ -t 0.700083958 -s 45 -d -1 -p CM8 -e 64 -c 2 -a 0 -i 0 -k MAC 
- -t 0.700083958 -s 45 -d -1 -p CM8 -e 64 -c 2 -a 0 -i 0 -k MAC
h -t 0.700083958 -s 45 -d -1 -p CM8 -e 64 -c 2 -a 0 -i 0 -k MAC
+ -t 0.800083958 -s 45 -d -1 -p CM8 -e 64 -c 2 -a 0 -i 0 -k MAC 
- -t 0.800083958 -s 45 -d -1 -p CM8 -e 64 -c 2 -a 0 -i 0 -k MAC
h -t 0.800083958 -s 45 -d -1 -p CM8 -e 64 -c 2 -a 0 -i 0 -k MAC
+ -t 0.900083958 -s 45 -d -1 -p CM8 -e 64 -c 2 -a 0 -i 0 -k MAC 
- -t 0.900083958 -s 45 -d -1 -p CM8 -e 64 -c 2 -a 0 -i 0 -k MAC
h -t 0.900083958 -s 45 -d -1 -p CM8 -e 64 -c 2 -a 0 -i 0 -k MAC
+ -t 1.000083958 -s 45 -d -1 -p CM8 -e 64 -c 2 -a 0 -i 0 -k MAC 
- -t 1.000083958 -s 45 -d -1 -p CM8 -e 64 -c 2 -a 0 -i 0 -k MAC
h -t 1.000083958 -s 45 -d -1 -p CM8 -e 64 -c 2 -a 0 -i 0 -k MAC
+ -t 1.000435000 -s 47 -d -1 -p ARP -e 88 -c 2 -a 0 -i 0 -k MAC 
- -t 1.000435000 -s 47 -d -1 -p ARP -e 88 -c 2 -a 0 -i 0 -k MAC
h -t 1.000435000 -s 47 -d -1 -p ARP -e 88 -c 2 -a 0 -i 0 -k MAC
d -t 1.000673624 -s 51 -d -1 -p ARP -e 88 -c 2 -a 0 -i 0 -k MAC
d -t 1.000673653 -s 59 -d -1 -p ARP -e 88 -c 2 -a 0 -i 0 -k MAC
d -t 1.000673687 -s 64 -d -1 -p ARP -e 88 -c 2 -a 0 -i 0 -k MAC
d -t 1.000673694 -s 49 -d -1 -p ARP -e 88 -c 2 -a 0 -i 0 -k MAC
d -t 1.000673706 -s 63 -d -1 -p ARP -e 88 -c 2 -a 0 -i 0 -k MAC
d -t 1.000673791 -s 53 -d -1 -p ARP -e 88 -c 2 -a 0 -i 0 -k MAC
d -t 1.000673833 -s 60 -d -1 -p ARP -e 88 -c 2 -a 0 -i 0 -k MAC
d -t 1.000673844 -s 65 -d -1 -p ARP -e 88 -c 2 -a 0 -i 0 -k MAC
d -t 1.000673869 -s 55 -d -1 -p ARP -e 88 -c 2 -a 0 -i 0 -k MAC
d -t 1.000673938 -s 57 -d -1 -p ARP -e 88 -c 2 -a 0 -i 0 -k MAC
d -t 1.000673980 -s 58 -d -1 -p ARP -e 88 -c 2 -a 0 -i 0 -k MAC
d -t 1.000673986 -s 52 -d -1 -p ARP -e 88 -c 2 -a 0 -i 0 -k MAC
d -t 1.000674005 -s 46 -d -1 -p ARP -e 88 -c 2 -a 0 -i 0 -k MAC
d -t 1.000674020 -s 61 -d -1 -p ARP -e 88 -c 2 -a 0 -i 0 -k MAC
d -t 1.000674066 -s 54 -d -1 -p ARP -e 88 -c 2 -a 0 -i 0 -k MAC
d -t 1.000674080 -s 62 -d -1 -p ARP -e 88 -c 2 -a 0 -i 0 -k MAC
d -t 1.000674084 -s 56 -d -1 -p ARP -e 88 -c 2 -a 0 -i 0 -k MAC
d -t 1.000674090 -s 48 -d -1 -p ARP -e 88 -c 2 -a 0 -i 0 -k MAC
d -t 1.000674140 -s 50 -d -1 -p ARP -e 88 -c 2 -a 0 -i 0 -k MAC
d -t 1.013875000 -s 47 -d 45 -p cbr -e 777 -c 2 -a 0 -i 14 -k IFQ
+ -t 1.013950000 -s 47 -d -1 -p ARP -e 88 -c 2 -a 0 -i 0 -k MAC 
- -t 1.013950000 -s 47 -d -1 -p ARP -e 88 -c 2 -a 0 -i 0 -k MAC
h -t 1.013950000 -s 47 -d -1 -p ARP -e 88 -c 2 -a 0 -i 0 -k MAC
d -t 1.014188624 -s 51 -d -1 -p ARP -e 88 -c 2 -a 0 -i 0 -k MAC
d -t 1.014188653 -s 59 -d -1 -p ARP -e 88 -c 2 -a 0 -i 0 -k MAC
d -t 1.014188687 -s 64 -d -1 -p ARP -e 88 -c 2 -a 0 -i 0 -k MAC
d -t 1.014188694 -s 49 -d -1 -p ARP -e 88 -c 2 -a 0 -i 0 -k MAC
d -t 1.014188706 -s 63 -d -1 -p ARP -e 88 -c 2 -a 0 -i 0 -k MAC
d -t 1.014188791 -s 53 -d -1 -p ARP -e 88 -c 2 -a 0 -i 0 -k MAC
d -t 1.014188833 -s 60 -d -1 -p ARP -e 88 -c 2 -a 0 -i 0 -k MAC
d -t 1.014188844 -s 65 -d -1 -p ARP -e 88 -c 2 -a 0 -i 0 -k MAC
d -t 1.014188869 -s 55 -d -1 -p ARP -e 88 -c 2 -a 0 -i 0 -k MAC
d -t 1.014188938 -s 57 -d -1 -p ARP -e 88 -c 2 -a 0 -i 0 -k MAC
d -t 1.014188980 -s 58 -d -1 -p ARP -e 88 -c 2 -a 0 -i 0 -k MAC
d -t 1.014188986 -s 52 -d -1 -p ARP -e 88 -c 2 -a 0 -i 0 -k MAC
d -t 1.014189005 -s 46 -d -1 -p ARP -e 88 -c 2 -a 0 -i 0 -k MAC
d -t 1.014189020 -s 61 -d -1 -p ARP -e 88 -c 2 -a 0 -i 0 -k MAC
d -t 1.014189066 -s 54 -d -1 -p ARP -e 88 -c 2 -a 0 -i 0 -k MAC
d -t 1.014189080 -s 62 -d -1 -p ARP -e 88 -c 2 -a 0 -i 0 -k MAC
d -t 1.014189084 -s 56 -d -1 -p ARP -e 88 -c 2 -a 0 -i 0 -k MAC
d -t 1.014189090 -s 48 -d -1 -p ARP -e 88 -c 2 -a 0 -i 0 -k MAC
d -t 1.014189140 -s 50 -d -1 -p ARP -e 88 -c 2 -a 0 -i 0 -k MAC
d -t 1.027750000 -s 47 -d 45 -p cbr -e 777 -c 2 -a 0 -i 17 -k IFQ
+ -t 1.027905000 -s 47 -d -1 -p ARP -e 88 -c 2 -a 0 -i 0 -k MAC 
- -t 1.027905000 -s 47 -d -1 -p ARP -e 88 -c 2 -a 0 -i 0 -k MAC
h -t 1.027905000 -s 47 -d -1 -p ARP -e 88 -c 2 -a 0 -i 0 -k MAC
d -t 1.028143624 -s 51 -d -1 -p ARP -e 88 -c 2 -a 0 -i 0 -k MAC
d -t 1.028143653 -s 59 -d -1 -p ARP -e 88 -c 2 -a 0 -i 0 -k MAC
d -t 1.028143687 -s 64 -d -1 -p ARP -e 88 -c 2 -a 0 -i 0 -k MAC
d -t 1.028143694 -s 49 -d -1 -p ARP -e 88 -c 2 -a 0 -i 0 -k MAC
d -t 1.028143706 -s 63 -d -1 -p ARP -e 88 -c 2 -a 0 -i 0 -k MAC
d -t 1.028143791 -s 53 -d -1 -p ARP -e 88 -c 2 -a 0 -i 0 -k MAC
d -t 1.028143833 -s 60 -d -1 -p ARP -e 88 -c 2 -a 0 -i 0 -k MAC
d -t 1.028143844 -s 65 -d -1 -p ARP -e 88 -c 2 -a 0 -i 0 -k MAC
d -t 1.028143869 -s 55 -d -1 -p ARP -e 88 -c 2 -a 0 -i 0 -k MAC
d -t 1.028143938 -s 57 -d -1 -p ARP -e 88 -c 2 -a 0 -i 0 -k MAC
d -t 1.028143980 -s 58 -d -1 -p ARP -e 88 -c 2 -a 0 -i 0 -k MAC
d -t 1.028143986 -s 52 -d -1 -p ARP -e 88 -c 2 -a 0 -i 0 -k MAC
d -t 1.028144005 -s 46 -d -1 -p ARP -e 88 -c 2 -a 0 -i 0 -k MAC
d -t 1.028144020 -s 61 -d -1 -p ARP -e 88 -c 2 -a 0 -i 0 -k MAC
d -t 1.028144066 -s 54 -d -1 -p ARP -e 88 -c 2 -a 0 -i 0 -k MAC
d -t 1.028144080 -s 62 -d -1 -p ARP -e 88 -c 2 -a 0 -i 0 -k MAC
d -t 1.028144084 -s 56 -d -1 -p ARP -e 88 -c 2 -a 0 -i 0 -k MAC
d -t 1.028144090 -s 48 -d -1 -p ARP -e 88 -c 2 -a 0 -i 0 -k MAC
d -t 1.028144140 -s 50 -d -1 -p ARP -e 88 -c 2 -a 0 -i 0 -k MAC
+ -t 1.040015 -s 1 -d 0 -p AM_Data -e 40 -c 0 -i 13 -a 0 -x {5.0.0.0 3.0.2.0 -1 ------- null}
- -t 1.040015 -s 1 -d 0 -p AM_Data -e 40 -c 0 -i 13 -a 0 -x {5.0.0.0 3.0.2.0 -1 ------- null}
h -t 1.040015 -s 1 -d 0 -p AM_Data -e 40 -c 0 -i 13 -a 0 -x {5.0.0.0 3.0.2.0 -1 ------- null}
+ -t 1.040015 -s 1 -d 0 -p AM_Data -e 40 -c 0 -i 13 -a 0 -x {5.0.0.0 3.0.2.0 -1 ------- null}
+ -t 1.040015 -s 1 -d 0 -p AM_Data -e 40 -c 0 -i 13 -a 0 -x {5.0.0.0 3.0.2.0 -1 ------- null}
+ -t 1.040015 -s 1 -d 0 -p AM_Data -e 40 -c 0 -i 13 -a 0 -x {5.0.0.0 3.0.2.0 -1 ------- null}
+ -t 1.040015 -s 1 -d 0 -p AM_Data -e 40 -c 0 -i 13 -a 0 -x {5.0.0.0 3.0.2.0 -1 ------- null}
+ -t 1.040015 -s 1 -d 0 -p AM_Data -e 40 -c 0 -i 13 -a 0 -x {5.0.0.0 3.0.2.0 -1 ------- null}
+ -t 1.040015 -s 1 -d 0 -p AM_Data -e 40 -c 0 -i 13 -a 0 -x {5.0.0.0 3.0.2.0 -1 ------- null}
+ -t 1.040015 -s 1 -d 0 -p AM_Data -e 40 -c 0 -i 13 -a 0 -x {5.0.0.0 3.0.2.0 -1 ------- null}
+ -t 1.040015 -s 1 -d 0 -p AM_Data -e 40 -c 0 -i 13 -a 0 -x {5.0.0.0 3.0.2.0 -1 ------- null}
+ -t 1.040015 -s 1 -d 0 -p AM_Data -e 40 -c 0 -i 13 -a 0 -x {5.0.0.0 3.0.2.0 -1 ------- null}
+ -t 1.040015 -s 1 -d 0 -p AM_Data -e 40 -c 0 -i 13 -a 0 -x {5.0.0.0 3.0.2.0 -1 ------- null}
+ -t 1.040015 -s 1 -d 0 -p AM_Data -e 40 -c 0 -i 13 -a 0 -x {5.0.0.0 3.0.2.0 -1 ------- null}
+ -t 1.040015 -s 1 -d 0 -p AM_Data -e 40 -c 0 -i 13 -a 0 -x {5.0.0.0 3.0.2.0 -1 ------- null}
+ -t 1.040015 -s 1 -d 0 -p AM_Data -e 40 -c 0 -i 13 -a 0 -x {5.0.0.0 3.0.2.0 -1 ------- null}
+ -t 1.040015 -s 1 -d 0 -p AM_Data -e 40 -c 0 -i 13 -a 0 -x {5.0.0.0 3.0.2.0 -1 ------- null}
+ -t 1.040015 -s 1 -d 0 -p AM_Data -e 40 -c 0 -i 13 -a 0 -x {5.0.0.0 3.0.2.0 -1 ------- null}
+ -t 1.040015 -s 1 -d 0 -p AM_Data -e 40 -c 0 -i 13 -a 0 -x {5.0.0.0 3.0.2.0 -1 ------- null}
+ -t 1.040015 -s 1 -d 0 -p AM_Data -e 40 -c 0 -i 16 -a 0 -x {5.0.0.0 3.0.2.0 -1 ------- null}
+ -t 1.040015 -s 1 -d 0 -p AM_Data -e 40 -c 0 -i 16 -a 0 -x {5.0.0.0 3.0.2.0 -1 ------- null}
+ -t 1.040015 -s 1 -d 0 -p AM_Data -e 40 -c 0 -i 16 -a 0 -x {5.0.0.0 3.0.2.0 -1 ------- null}
+ -t 1.040015 -s 1 -d 0 -p AM_Data -e 40 -c 0 -i 16 -a 0 -x {5.0.0.0 3.0.2.0 -1 ------- null}
+ -t 1.040015 -s 1 -d 0 -p AM_Data -e 40 -c 0 -i 16 -a 0 -x {5.0.0.0 3.0.2.0 -1 ------- null}
+ -t 1.040015 -s 1 -d 0 -p AM_Data -e 40 -c 0 -i 16 -a 0 -x {5.0.0.0 3.0.2.0 -1 ------- null}
+ -t 1.040015 -s 1 -d 0 -p AM_Data -e 40 -c 0 -i 16 -a 0 -x {5.0.0.0 3.0.2.0 -1 ------- null}
- -t 1.04001551446945 -s 1 -d 0 -p AM_Data -e 40 -c 0 -i 13 -a 0 -x {5.0.0.0 3.0.2.0 -1 ------- null}
h -t 1.04001551446945 -s 1 -d 0 -p AM_Data -e 40 -c 0 -i 13 -a 0 -x {5.0.0.0 3.0.2.0 -1 ------- null}
- -t 1.04001602893891 -s 1 -d 0 -p AM_Data -e 40 -c 0 -i 13 -a 0 -x {5.0.0.0 3.0.2.0 -1 ------- null}
h -t 1.04001602893891 -s 1 -d 0 -p AM_Data -e 40 -c 0 -i 13 -a 0 -x {5.0.0.0 3.0.2.0 -1 ------- null}
- -t 1.04001654340836 -s 1 -d 0 -p AM_Data -e 40 -c 0 -i 13 -a 0 -x {5.0.0.0 3.0.2.0 -1 ------- null}
h -t 1.04001654340836 -s 1 -d 0 -p AM_Data -e 40 -c 0 -i 13 -a 0 -x {5.0.0.0 3.0.2.0 -1 ------- null}
- -t 1.04001705787781 -s 1 -d 0 -p AM_Data -e 40 -c 0 -i 13 -a 0 -x {5.0.0.0 3.0.2.0 -1 ------- null}
h -t 1.04001705787781 -s 1 -d 0 -p AM_Data -e 40 -c 0 -i 13 -a 0 -x {5.0.0.0 3.0.2.0 -1 ------- null}
- -t 1.04001757234727 -s 1 -d 0 -p AM_Data -e 40 -c 0 -i 13 -a 0 -x {5.0.0.0 3.0.2.0 -1 ------- null}
h -t 1.04001757234727 -s 1 -d 0 -p AM_Data -e 40 -c 0 -i 13 -a 0 -x {5.0.0.0 3.0.2.0 -1 ------- null}
- -t 1.04001808681672 -s 1 -d 0 -p AM_Data -e 40 -c 0 -i 13 -a 0 -x {5.0.0.0 3.0.2.0 -1 ------- null}
h -t 1.04001808681672 -s 1 -d 0 -p AM_Data -e 40 -c 0 -i 13 -a 0 -x {5.0.0.0 3.0.2.0 -1 ------- null}
- -t 1.04001860128617 -s 1 -d 0 -p AM_Data -e 40 -c 0 -i 13 -a 0 -x {5.0.0.0 3.0.2.0 -1 ------- null}
h -t 1.04001860128617 -s 1 -d 0 -p AM_Data -e 40 -c 0 -i 13 -a 0 -x {5.0.0.0 3.0.2.0 -1 ------- null}
- -t 1.04001911575563 -s 1 -d 0 -p AM_Data -e 40 -c 0 -i 13 -a 0 -x {5.0.0.0 3.0.2.0 -1 ------- null}
h -t 1.04001911575563 -s 1 -d 0 -p AM_Data -e 40 -c 0 -i 13 -a 0 -x {5.0.0.0 3.0.2.0 -1 ------- null}
- -t 1.04001963022508 -s 1 -d 0 -p AM_Data -e 40 -c 0 -i 13 -a 0 -x {5.0.0.0 3.0.2.0 -1 ------- null}
h -t 1.04001963022508 -s 1 -d 0 -p AM_Data -e 40 -c 0 -i 13 -a 0 -x {5.0.0.0 3.0.2.0 -1 ------- null}
- -t 1.04002014469454 -s 1 -d 0 -p AM_Data -e 40 -c 0 -i 13 -a 0 -x {5.0.0.0 3.0.2.0 -1 ------- null}
h -t 1.04002014469454 -s 1 -d 0 -p AM_Data -e 40 -c 0 -i 13 -a 0 -x {5.0.0.0 3.0.2.0 -1 ------- null}
- -t 1.04002065916399 -s 1 -d 0 -p AM_Data -e 40 -c 0 -i 13 -a 0 -x {5.0.0.0 3.0.2.0 -1 ------- null}
h -t 1.04002065916399 -s 1 -d 0 -p AM_Data -e 40 -c 0 -i 13 -a 0 -x {5.0.0.0 3.0.2.0 -1 ------- null}
- -t 1.04002117363344 -s 1 -d 0 -p AM_Data -e 40 -c 0 -i 13 -a 0 -x {5.0.0.0 3.0.2.0 -1 ------- null}
h -t 1.04002117363344 -s 1 -d 0 -p AM_Data -e 40 -c 0 -i 13 -a 0 -x {5.0.0.0 3.0.2.0 -1 ------- null}
- -t 1.0400216881029 -s 1 -d 0 -p AM_Data -e 40 -c 0 -i 13 -a 0 -x {5.0.0.0 3.0.2.0 -1 ------- null}
h -t 1.0400216881029 -s 1 -d 0 -p AM_Data -e 40 -c 0 -i 13 -a 0 -x {5.0.0.0 3.0.2.0 -1 ------- null}
- -t 1.04002220257235 -s 1 -d 0 -p AM_Data -e 40 -c 0 -i 13 -a 0 -x {5.0.0.0 3.0.2.0 -1 ------- null}
h -t 1.04002220257235 -s 1 -d 0 -p AM_Data -e 40 -c 0 -i 13 -a 0 -x {5.0.0.0 3.0.2.0 -1 ------- null}
- -t 1.0400227170418 -s 1 -d 0 -p AM_Data -e 40 -c 0 -i 13 -a 0 -x {5.0.0.0 3.0.2.0 -1 ------- null}
h -t 1.0400227170418 -s 1 -d 0 -p AM_Data -e 40 -c 0 -i 13 -a 0 -x {5.0.0.0 3.0.2.0 -1 ------- null}
- -t 1.04002323151126 -s 1 -d 0 -p AM_Data -e 40 -c 0 -i 13 -a 0 -x {5.0.0.0 3.0.2.0 -1 ------- null}
h -t 1.04002323151126 -s 1 -d 0 -p AM_Data -e 40 -c 0 -i 13 -a 0 -x {5.0.0.0 3.0.2.0 -1 ------- null}
- -t 1.04002374598071 -s 1 -d 0 -p AM_Data -e 40 -c 0 -i 16 -a 0 -x {5.0.0.0 3.0.2.0 -1 ------- null}
h -t 1.04002374598071 -s 1 -d 0 -p AM_Data -e 40 -c 0 -i 16 -a 0 -x {5.0.0.0 3.0.2.0 -1 ------- null}
- -t 1.04002426045016 -s 1 -d 0 -p AM_Data -e 40 -c 0 -i 16 -a 0 -x {5.0.0.0 3.0.2.0 -1 ------- null}
h -t 1.04002426045016 -s 1 -d 0 -p AM_Data -e 40 -c 0 -i 16 -a 0 -x {5.0.0.0 3.0.2.0 -1 ------- null}
- -t 1.04002477491962 -s 1 -d 0 -p AM_Data -e 40 -c 0 -i 16 -a 0 -x {5.0.0.0 3.0.2.0 -1 ------- null}
h -t 1.04002477491962 -s 1 -d 0 -p AM_Data -e 40 -c 0 -i 16 -a 0 -x {5.0.0.0 3.0.2.0 -1 ------- null}
- -t 1.04002528938907 -s 1 -d 0 -p AM_Data -e 40 -c 0 -i 16 -a 0 -x {5.0.0.0 3.0.2.0 -1 ------- null}
h -t 1.04002528938907 -s 1 -d 0 -p AM_Data -e 40 -c 0 -i 16 -a 0 -x {5.0.0.0 3.0.2.0 -1 ------- null}
- -t 1.04002580385852 -s 1 -d 0 -p AM_Data -e 40 -c 0 -i 16 -a 0 -x {5.0.0.0 3.0.2.0 -1 ------- null}
h -t 1.04002580385852 -s 1 -d 0 -p AM_Data -e 40 -c 0 -i 16 -a 0 -x {5.0.0.0 3.0.2.0 -1 ------- null}
- -t 1.04002631832798 -s 1 -d 0 -p AM_Data -e 40 -c 0 -i 16 -a 0 -x {5.0.0.0 3.0.2.0 -1 ------- null}
h -t 1.04002631832798 -s 1 -d 0 -p AM_Data -e 40 -c 0 -i 16 -a 0 -x {5.0.0.0 3.0.2.0 -1 ------- null}
- -t 1.04002683279743 -s 1 -d 0 -p AM_Data -e 40 -c 0 -i 16 -a 0 -x {5.0.0.0 3.0.2.0 -1 ------- null}
h -t 1.04002683279743 -s 1 -d 0 -p AM_Data -e 40 -c 0 -i 16 -a 0 -x {5.0.0.0 3.0.2.0 -1 ------- null}
d -t 1.041625000 -s 47 -d 45 -p cbr -e 777 -c 2 -a 0 -i 20 -k RTR
d -t 1.041625000 -s 47 -d 45 -p cbr -e 777 -c 2 -a 0 -i 23 -k RTR
r -t 1.05501551446945 -s 1 -d 0 -p AM_Data -e 40 -c 0 -i 13 -a 0 -x {5.0.0.0 3.0.2.0 -1 ------- null}
r -t 1.05501602893891 -s 1 -d 0 -p AM_Data -e 40 -c 0 -i 13 -a 0 -x {5.0.0.0 3.0.2.0 -1 ------- null}
r -t 1.05501654340836 -s 1 -d 0 -p AM_Data -e 40 -c 0 -i 13 -a 0 -x {5.0.0.0 3.0.2.0 -1 ------- null}
r -t 1.05501705787781 -s 1 -d 0 -p AM_Data -e 40 -c 0 -i 13 -a 0 -x {5.0.0.0 3.0.2.0 -1 ------- null}
r -t 1.05501757234727 -s 1 -d 0 -p AM_Data -e 40 -c 0 -i 13 -a 0 -x {5.0.0.0 3.0.2.0 -1 ------- null}
r -t 1.05501808681672 -s 1 -d 0 -p AM_Data -e 40 -c 0 -i 13 -a 0 -x {5.0.0.0 3.0.2.0 -1 ------- null}
r -t 1.05501860128617 -s 1 -d 0 -p AM_Data -e 40 -c 0 -i 13 -a 0 -x {5.0.0.0 3.0.2.0 -1 ------- null}
r -t 1.05501911575563 -s 1 -d 0 -p AM_Data -e 40 -c 0 -i 13 -a 0 -x {5.0.0.0 3.0.2.0 -1 ------- null}
r -t 1.05501963022508 -s 1 -d 0 -p AM_Data -e 40 -c 0 -i 13 -a 0 -x {5.0.0.0 3.0.2.0 -1 ------- null}
r -t 1.05502014469454 -s 1 -d 0 -p AM_Data -e 40 -c 0 -i 13 -a 0 -x {5.0.0.0 3.0.2.0 -1 ------- null}
r -t 1.05502065916399 -s 1 -d 0 -p AM_Data -e 40 -c 0 -i 13 -a 0 -x {5.0.0.0 3.0.2.0 -1 ------- null}
r -t 1.05502117363344 -s 1 -d 0 -p AM_Data -e 40 -c 0 -i 13 -a 0 -x {5.0.0.0 3.0.2.0 -1 ------- null}
r -t 1.0550216881029 -s 1 -d 0 -p AM_Data -e 40 -c 0 -i 13 -a 0 -x {5.0.0.0 3.0.2.0 -1 ------- null}
r -t 1.05502220257235 -s 1 -d 0 -p AM_Data -e 40 -c 0 -i 13 -a 0 -x {5.0.0.0 3.0.2.0 -1 ------- null}
r -t 1.0550227170418 -s 1 -d 0 -p AM_Data -e 40 -c 0 -i 13 -a 0 -x {5.0.0.0 3.0.2.0 -1 ------- null}
r -t 1.05502323151126 -s 1 -d 0 -p AM_Data -e 40 -c 0 -i 13 -a 0 -x {5.0.0.0 3.0.2.0 -1 ------- null}
r -t 1.05502374598071 -s 1 -d 0 -p AM_Data -e 40 -c 0 -i 13 -a 0 -x {5.0.0.0 3.0.2.0 -1 ------- null}
r -t 1.05502426045016 -s 1 -d 0 -p AM_Data -e 40 -c 0 -i 16 -a 0 -x {5.0.0.0 3.0.2.0 -1 ------- null}
r -t 1.05502477491962 -s 1 -d 0 -p AM_Data -e 40 -c 0 -i 16 -a 0 -x {5.0.0.0 3.0.2.0 -1 ------- null}
r -t 1.05502528938907 -s 1 -d 0 -p AM_Data -e 40 -c 0 -i 16 -a 0 -x {5.0.0.0 3.0.2.0 -1 ------- null}
r -t 1.05502580385852 -s 1 -d 0 -p AM_Data -e 40 -c 0 -i 16 -a 0 -x {5.0.0.0 3.0.2.0 -1 ------- null}
r -t 1.05502631832798 -s 1 -d 0 -p AM_Data -e 40 -c 0 -i 16 -a 0 -x {5.0.0.0 3.0.2.0 -1 ------- null}
r -t 1.05502683279743 -s 1 -d 0 -p AM_Data -e 40 -c 0 -i 16 -a 0 -x {5.0.0.0 3.0.2.0 -1 ------- null}
r -t 1.05502734726688 -s 1 -d 0 -p AM_Data -e 40 -c 0 -i 16 -a 0 -x {5.0.0.0 3.0.2.0 -1 ------- null}
+ -t 1.05507374598071 -s 0 -d 22 -p cbr -e 666 -c 0 -i 13 -a 0 -x {5.0.0.0 3.0.2.0 0 ------- null}
- -t 1.05507374598071 -s 0 -d 22 -p cbr -e 666 -c 0 -i 13 -a 0 -x {5.0.0.0 3.0.2.0 0 ------- null}
h -t 1.05507374598071 -s 0 -d 22 -p cbr -e 666 -c 0 -i 13 -a 0 -x {5.0.0.0 3.0.2.0 -1 ------- null}
r -t 1.05548231189711 -s 0 -d 22 -p cbr -e 666 -c 0 -i 13 -a 0 -x {5.0.0.0 3.0.2.0 0 ------- null}
+ -t 1.05548231189711 -s 22 -d 23 -p cbr -e 666 -c 0 -i 13 -a 0 -x {5.0.0.0 3.0.2.0 0 ------- null}
- -t 1.05548231189711 -s 22 -d 23 -p cbr -e 666 -c 0 -i 13 -a 0 -x {5.0.0.0 3.0.2.0 0 ------- null}
h -t 1.05548231189711 -s 22 -d 23 -p cbr -e 666 -c 0 -i 13 -a 0 -x {5.0.0.0 3.0.2.0 -1 ------- null}
+ -t 1.056095000 -s 47 -d -1 -p ARP -e 88 -c 2 -a 0 -i 0 -k MAC 
- -t 1.056095000 -s 47 -d -1 -p ARP -e 88 -c 2 -a 0 -i 0 -k MAC
h -t 1.056095000 -s 47 -d -1 -p ARP -e 88 -c 2 -a 0 -i 0 -k MAC
d -t 1.056333624 -s 51 -d -1 -p ARP -e 88 -c 2 -a 0 -i 0 -k MAC
d -t 1.056333653 -s 59 -d -1 -p ARP -e 88 -c 2 -a 0 -i 0 -k MAC
d -t 1.056333687 -s 64 -d -1 -p ARP -e 88 -c 2 -a 0 -i 0 -k MAC
d -t 1.056333694 -s 49 -d -1 -p ARP -e 88 -c 2 -a 0 -i 0 -k MAC
d -t 1.056333706 -s 63 -d -1 -p ARP -e 88 -c 2 -a 0 -i 0 -k MAC
d -t 1.056333791 -s 53 -d -1 -p ARP -e 88 -c 2 -a 0 -i 0 -k MAC
d -t 1.056333833 -s 60 -d -1 -p ARP -e 88 -c 2 -a 0 -i 0 -k MAC
d -t 1.056333844 -s 65 -d -1 -p ARP -e 88 -c 2 -a 0 -i 0 -k MAC
d -t 1.056333869 -s 55 -d -1 -p ARP -e 88 -c 2 -a 0 -i 0 -k MAC
d -t 1.056333938 -s 57 -d -1 -p ARP -e 88 -c 2 -a 0 -i 0 -k MAC
d -t 1.056333980 -s 58 -d -1 -p ARP -e 88 -c 2 -a 0 -i 0 -k MAC
d -t 1.056333986 -s 52 -d -1 -p ARP -e 88 -c 2 -a 0 -i 0 -k MAC
d -t 1.056334005 -s 46 -d -1 -p ARP -e 88 -c 2 -a 0 -i 0 -k MAC
d -t 1.056334020 -s 61 -d -1 -p ARP -e 88 -c 2 -a 0 -i 0 -k MAC
d -t 1.056334066 -s 54 -d -1 -p ARP -e 88 -c 2 -a 0 -i 0 -k MAC
d -t 1.056334080 -s 62 -d -1 -p ARP -e 88 -c 2 -a 0 -i 0 -k MAC
d -t 1.056334084 -s 56 -d -1 -p ARP -e 88 -c 2 -a 0 -i 0 -k MAC
d -t 1.056334090 -s 48 -d -1 -p ARP -e 88 -c 2 -a 0 -i 0 -k MAC
d -t 1.056334140 -s 50 -d -1 -p ARP -e 88 -c 2 -a 0 -i 0 -k MAC
+ -t 1.060015 -s 1 -d 0 -p AM_Data -e 40 -c 0 -i 16 -a 0 -x {5.0.0.0 3.0.2.0 -1 ------- null}
- -t 1.060015 -s 1 -d 0 -p AM_Data -e 40 -c 0 -i 16 -a 0 -x {5.0.0.0 3.0.2.0 -1 ------- null}
h -t 1.060015 -s 1 -d 0 -p AM_Data -e 40 -c 0 -i 16 -a 0 -x {5.0.0.0 3.0.2.0 -1 ------- null}
+ -t 1.060015 -s 1 -d 0 -p AM_Data -e 40 -c 0 -i 16 -a 0 -x {5.0.0.0 3.0.2.0 -1 ------- null}
+ -t 1.060015 -s 1 -d 0 -p AM_Data -e 40 -c 0 -i 16 -a 0 -x {5.0.0.0 3.0.2.0 -1 ------- null}
+ -t 1.060015 -s 1 -d 0 -p AM_Data -e 40 -c 0 -i 16 -a 0 -x {5.0.0.0 3.0.2.0 -1 ------- null}
+ -t 1.060015 -s 1 -d 0 -p AM_Data -e 40 -c 0 -i 16 -a 0 -x {5.0.0.0 3.0.2.0 -1 ------- null}
+ -t 1.060015 -s 1 -d 0 -p AM_Data -e 40 -c 0 -i 16 -a 0 -x {5.0.0.0 3.0.2.0 -1 ------- null}
+ -t 1.060015 -s 1 -d 0 -p AM_Data -e 40 -c 0 -i 16 -a 0 -x {5.0.0.0 3.0.2.0 -1 ------- null}
+ -t 1.060015 -s 1 -d 0 -p AM_Data -e 40 -c 0 -i 16 -a 0 -x {5.0.0.0 3.0.2.0 -1 ------- null}
+ -t 1.060015 -s 1 -d 0 -p AM_Data -e 40 -c 0 -i 16 -a 0 -x {5.0.0.0 3.0.2.0 -1 ------- null}
+ -t 1.060015 -s 1 -d 0 -p AM_Data -e 40 -c 0 -i 16 -a 0 -x {5.0.0.0 3.0.2.0 -1 ------- null}
+ -t 1.060015 -s 1 -d 0 -p AM_Data -e 40 -c 0 -i 19 -a 0 -x {5.0.0.0 3.0.2.0 -1 ------- null}
+ -t 1.060015 -s 1 -d 0 -p AM_Data -e 40 -c 0 -i 19 -a 0 -x {5.0.0.0 3.0.2.0 -1 ------- null}
+ -t 1.060015 -s 1 -d 0 -p AM_Data -e 40 -c 0 -i 19 -a 0 -x {5.0.0.0 3.0.2.0 -1 ------- null}
+ -t 1.060015 -s 1 -d 0 -p AM_Data -e 40 -c 0 -i 19 -a 0 -x {5.0.0.0 3.0.2.0 -1 ------- null}
+ -t 1.060015 -s 1 -d 0 -p AM_Data -e 40 -c 0 -i 19 -a 0 -x {5.0.0.0 3.0.2.0 -1 ------- null}
+ -t 1.060015 -s 1 -d 0 -p AM_Data -e 40 -c 0 -i 19 -a 0 -x {5.0.0.0 3.0.2.0 -1 ------- null}
+ -t 1.060015 -s 1 -d 0 -p AM_Data -e 40 -c 0 -i 19 -a 0 -x {5.0.0.0 3.0.2.0 -1 ------- null}
+ -t 1.060015 -s 1 -d 0 -p AM_Data -e 40 -c 0 -i 19 -a 0 -x {5.0.0.0 3.0.2.0 -1 ------- null}
+ -t 1.060015 -s 1 -d 0 -p AM_Data -e 40 -c 0 -i 19 -a 0 -x {5.0.0.0 3.0.2.0 -1 ------- null}
+ -t 1.060015 -s 1 -d 0 -p AM_Data -e 40 -c 0 -i 19 -a 0 -x {5.0.0.0 3.0.2.0 -1 ------- null}
+ -t 1.060015 -s 1 -d 0 -p AM_Data -e 40 -c 0 -i 19 -a 0 -x {5.0.0.0 3.0.2.0 -1 ------- null}
+ -t 1.060015 -s 1 -d 0 -p AM_Data -e 40 -c 0 -i 19 -a 0 -x {5.0.0.0 3.0.2.0 -1 ------- null}
+ -t 1.060015 -s 1 -d 0 -p AM_Data -e 40 -c 0 -i 19 -a 0 -x {5.0.0.0 3.0.2.0 -1 ------- null}
+ -t 1.060015 -s 1 -d 0 -p AM_Data -e 40 -c 0 -i 19 -a 0 -x {5.0.0.0 3.0.2.0 -1 ------- null}
- -t 1.06001551446945 -s 1 -d 0 -p AM_Data -e 40 -c 0 -i 16 -a 0 -x {5.0.0.0 3.0.2.0 -1 ------- null}
h -t 1.06001551446945 -s 1 -d 0 -p AM_Data -e 40 -c 0 -i 16 -a 0 -x {5.0.0.0 3.0.2.0 -1 ------- null}
- -t 1.06001602893891 -s 1 -d 0 -p AM_Data -e 40 -c 0 -i 16 -a 0 -x {5.0.0.0 3.0.2.0 -1 ------- null}
h -t 1.06001602893891 -s 1 -d 0 -p AM_Data -e 40 -c 0 -i 16 -a 0 -x {5.0.0.0 3.0.2.0 -1 ------- null}
- -t 1.06001654340836 -s 1 -d 0 -p AM_Data -e 40 -c 0 -i 16 -a 0 -x {5.0.0.0 3.0.2.0 -1 ------- null}
h -t 1.06001654340836 -s 1 -d 0 -p AM_Data -e 40 -c 0 -i 16 -a 0 -x {5.0.0.0 3.0.2.0 -1 ------- null}
- -t 1.06001705787781 -s 1 -d 0 -p AM_Data -e 40 -c 0 -i 16 -a 0 -x {5.0.0.0 3.0.2.0 -1 ------- null}
h -t 1.06001705787781 -s 1 -d 0 -p AM_Data -e 40 -c 0 -i 16 -a 0 -x {5.0.0.0 3.0.2.0 -1 ------- null}
- -t 1.06001757234727 -s 1 -d 0 -p AM_Data -e 40 -c 0 -i 16 -a 0 -x {5.0.0.0 3.0.2.0 -1 ------- null}
h -t 1.06001757234727 -s 1 -d 0 -p AM_Data -e 40 -c 0 -i 16 -a 0 -x {5.0.0.0 3.0.2.0 -1 ------- null}
- -t 1.06001808681672 -s 1 -d 0 -p AM_Data -e 40 -c 0 -i 16 -a 0 -x {5.0.0.0 3.0.2.0 -1 ------- null}
h -t 1.06001808681672 -s 1 -d 0 -p AM_Data -e 40 -c 0 -i 16 -a 0 -x {5.0.0.0 3.0.2.0 -1 ------- null}
- -t 1.06001860128617 -s 1 -d 0 -p AM_Data -e 40 -c 0 -i 16 -a 0 -x {5.0.0.0 3.0.2.0 -1 ------- null}
h -t 1.06001860128617 -s 1 -d 0 -p AM_Data -e 40 -c 0 -i 16 -a 0 -x {5.0.0.0 3.0.2.0 -1 ------- null}
- -t 1.06001911575563 -s 1 -d 0 -p AM_Data -e 40 -c 0 -i 16 -a 0 -x {5.0.0.0 3.0.2.0 -1 ------- null}
h -t 1.06001911575563 -s 1 -d 0 -p AM_Data -e 40 -c 0 -i 16 -a 0 -x {5.0.0.0 3.0.2.0 -1 ------- null}
- -t 1.06001963022508 -s 1 -d 0 -p AM_Data -e 40 -c 0 -i 16 -a 0 -x {5.0.0.0 3.0.2.0 -1 ------- null}
h -t 1.06001963022508 -s 1 -d 0 -p AM_Data -e 40 -c 0 -i 16 -a 0 -x {5.0.0.0 3.0.2.0 -1 ------- null}
- -t 1.06002014469454 -s 1 -d 0 -p AM_Data -e 40 -c 0 -i 19 -a 0 -x {5.0.0.0 3.0.2.0 -1 ------- null}
h -t 1.06002014469454 -s 1 -d 0 -p AM_Data -e 40 -c 0 -i 19 -a 0 -x {5.0.0.0 3.0.2.0 -1 ------- null}
- -t 1.06002065916399 -s 1 -d 0 -p AM_Data -e 40 -c 0 -i 19 -a 0 -x {5.0.0.0 3.0.2.0 -1 ------- null}
h -t 1.06002065916399 -s 1 -d 0 -p AM_Data -e 40 -c 0 -i 19 -a 0 -x {5.0.0.0 3.0.2.0 -1 ------- null}
- -t 1.06002117363344 -s 1 -d 0 -p AM_Data -e 40 -c 0 -i 19 -a 0 -x {5.0.0.0 3.0.2.0 -1 ------- null}
h -t 1.06002117363344 -s 1 -d 0 -p AM_Data -e 40 -c 0 -i 19 -a 0 -x {5.0.0.0 3.0.2.0 -1 ------- null}
- -t 1.0600216881029 -s 1 -d 0 -p AM_Data -e 40 -c 0 -i 19 -a 0 -x {5.0.0.0 3.0.2.0 -1 ------- null}
h -t 1.0600216881029 -s 1 -d 0 -p AM_Data -e 40 -c 0 -i 19 -a 0 -x {5.0.0.0 3.0.2.0 -1 ------- null}
- -t 1.06002220257235 -s 1 -d 0 -p AM_Data -e 40 -c 0 -i 19 -a 0 -x {5.0.0.0 3.0.2.0 -1 ------- null}
h -t 1.06002220257235 -s 1 -d 0 -p AM_Data -e 40 -c 0 -i 19 -a 0 -x {5.0.0.0 3.0.2.0 -1 ------- null}
- -t 1.0600227170418 -s 1 -d 0 -p AM_Data -e 40 -c 0 -i 19 -a 0 -x {5.0.0.0 3.0.2.0 -1 ------- null}
h -t 1.0600227170418 -s 1 -d 0 -p AM_Data -e 40 -c 0 -i 19 -a 0 -x {5.0.0.0 3.0.2.0 -1 ------- null}
- -t 1.06002323151126 -s 1 -d 0 -p AM_Data -e 40 -c 0 -i 19 -a 0 -x {5.0.0.0 3.0.2.0 -1 ------- null}
h -t 1.06002323151126 -s 1 -d 0 -p AM_Data -e 40 -c 0 -i 19 -a 0 -x {5.0.0.0 3.0.2.0 -1 ------- null}
- -t 1.06002374598071 -s 1 -d 0 -p AM_Data -e 40 -c 0 -i 19 -a 0 -x {5.0.0.0 3.0.2.0 -1 ------- null}
h -t 1.06002374598071 -s 1 -d 0 -p AM_Data -e 40 -c 0 -i 19 -a 0 -x {5.0.0.0 3.0.2.0 -1 ------- null}
- -t 1.06002426045016 -s 1 -d 0 -p AM_Data -e 40 -c 0 -i 19 -a 0 -x {5.0.0.0 3.0.2.0 -1 ------- null}
h -t 1.06002426045016 -s 1 -d 0 -p AM_Data -e 40 -c 0 -i 19 -a 0 -x {5.0.0.0 3.0.2.0 -1 ------- null}
- -t 1.06002477491962 -s 1 -d 0 -p AM_Data -e 40 -c 0 -i 19 -a 0 -x {5.0.0.0 3.0.2.0 -1 ------- null}
h -t 1.06002477491962 -s 1 -d 0 -p AM_Data -e 40 -c 0 -i 19 -a 0 -x {5.0.0.0 3.0.2.0 -1 ------- null}
- -t 1.06002528938907 -s 1 -d 0 -p AM_Data -e 40 -c 0 -i 19 -a 0 -x {5.0.0.0 3.0.2.0 -1 ------- null}