n -t * -a 0.0.0  -s 0 -x 800 -y 800 -Z 0  -z 20 -v circle -c black
n -t * -a 0.0.1  -s 1 -x 1000 -y 1000 -Z 0  -z 10 -v circle -c black
n -t * -a 0.0.2  -s 2 -x 534.42580720150181 -y 594.54163564114913 -Z 0.0  -z 5 -v circle -c black
n -t * -a 0.0.2  -s 2 -x 534.42580720150181 -y 594.54163564114913 -Z 0.0  -z 5 -v circle -c black
n -t * -a 0.0.2  -s 2 -x 534.42580720150181 -y 594.54163564114913 -Z 0.0  -z 5 -v circle -c black
n -t * -a 0.0.2  -s 2 -x 534.42580720150181 -y 594.54163564114913 -Z 0.0  -z 5 -v circle -c black
n -t * -a 0.0.2  -s 2 -x 534.42580720150181 -y 594.54163564114913 -Z 0.0  -z 5 -v circle -c black
n -t * -a 0.0.2  -s 2 -x 534.42580720150181 -y 594.54163564114913 -Z 0.0  -z 5 -v circle -c black
n -t * -a 0.0.2  -s 2 -x 534.42580720150181 -y 594.54163564114913 -Z 0.0  -z 5 -v circle -c black
n -t * -a 0.0.2  -s 2 -x 534.42580720150181 -y 594.54163564114913 -Z 0.0  -z 5 -v circle -c black
n -t * -a 0.0.2  -s 2 -x 534.42580720150181 -y 594.54163564114913 -Z 0.0  -z 5 -v circle -c black
n -t * -a 0.0.2  -s 2 -x 534.42580720150181 -y 594.54163564114913 -Z 0.0  -z 5 -v circle -c black
n -t * -a 0.0.2  -s 2 -x 534.42580720150181 -y 594.54163564114913 -Z 0.0  -z 5 -v circle -c black
n -t * -a 0.0.2  -s 2 -x 534.42580720150181 -y 594.54163564114913 -Z 0.0  -z 5 -v circle -c black
n -t * -a 0.0.2  -s 2 -x 534.42580720150181 -y 594.54163564114913 -Z 0.0  -z 5 -v circle -c black
n -t * -a 0.0.2  -s 2 -x 534.42580720150181 -y 594.54163564114913 -Z 0.0  -z 5 -v circle -c black
n -t * -a 0.0.2  -s 2 -x 534.42580720150181 -y 594.54163564114913 -Z 0.0  -z 5 -v circle -c black
n -t * -a 0.0.2  -s 2 -x 534.42580720150181 -y 594.54163564114913 -Z 0.0  -z 5 -v circle -c black
n -t * -a 0.0.2  -s 2 -x 534.42580720150181 -y 594.54163564114913 -Z 0.0  -z 5 -v circle -c black
n -t * -a 0.0.2  -s 2 -x 534.42580720150181 -y 594.54163564114913 -Z 0.0  -z 5 -v circle -c black
n -t * -a 0.0.2  -s 2 -x 534.42580720150181 -y 594.54163564114913 -Z 0.0  -z 5 -v circle -c black
n -t * -a 0.0.2  -s 2 -x 534.42580720150181 -y 594.54163564114913 -Z 0.0  -z 5 -v circle -c black
n -t * -a 1.0.0  -s 22 -x 850 -y 800 -Z 0  -z 10 -v circle -c black
n -t * -a 2.0.0  -s 23 -x 870 -y 800 -Z 0  -z 10 -v circle -c black
n -t * -a 4.0.0  -s 24 -x 600 -y 1000 -Z 0  -z 5 -v circle -c black
n -t * -a 3.0.0  -s 45 -x 200 -y 50 -Z 0  -z 10 -v circle -c black
V -t * -v 1.0a5 -a 0
W -t * -x 1000 -y 1000
A -t * -n 3 -p 0 -o 0xffffffff -c 31 -a 1
A -t * -h 1 -m 1023 -s 22
A -t * -h 2 -m 2047 -s 11
A -t * -h 3 -m 2047 -s 0
c -t * -i 1 -n Blue
c -t * -i 2 -n Red
n -t * -a 0.0.17 -s 17 -S UP -v circle -c red -i red -x 587.63085095567203 -y 511.71201197975876 -Z 0.0
n -t * -a 0.0.0 -s 0 -S UP -v circle -c yellow -i yellow -x 800 -y 800 -Z 0
n -t * -a 0.0.18 -s 18 -S UP -v circle -c red -i red -x 543.78534380522808 -y 500.27333446791084 -Z 0.0
n -t * -a 0.0.1 -s 1 -S UP -v circle -c blue -i blue -x 1000 -y 1000 -Z 0
n -t * -a 0.0.20 -s 20 -S UP -v circle -c red -i red -x 594.30895945723591 -y 550.68159776305856 -Z 0.0
n -t * -a 0.0.19 -s 19 -S UP -v circle -c red -i red -x 593.93240217768232 -y 521.88340030698259 -Z 0.0
n -t * -a 0.0.2 -s 2 -S UP -v circle -c red -i red -x 534.42580720150181 -y 594.54163564114913 -Z 0.0
n -t * -a 0.0.21 -s 21 -S UP -v circle -c red -i red -x 505.61360372491816 -y 547.83780469924113 -Z 0.0
n -t * -a 0.0.3 -s 3 -S UP -v circle -c red -i red -x 561.27022079251253 -y 568.60085975779259 -Z 0.0
n -t * -a 1.0.0 -s 22 -S UP -v circle -c blue -i blue -x 850 -y 800 -Z 0
n -t * -a 0.0.4 -s 4 -S UP -v circle -c red -i red -x 574.64994922031178 -y 541.69654578049506 -Z 0.0
n -t * -a 2.0.0 -s 23 -S UP -v circle -c blue -i blue -x 870 -y 800 -Z 0
n -t * -a 0.0.5 -s 5 -S UP -v circle -c red -i red -x 593.84493278052889 -y 551.78524234880933 -Z 0.0
n -t * -a 4.0.0 -s 24 -S UP -v circle -c black -i black -x 600 -y 1000 -Z 0
n -t * -a 0.0.6 -s 6 -S UP -v circle -c red -i red -x 554.56815643914422 -y 527.00527269719419 -Z 0.0
n -t * -a 0.0.7 -s 7 -S UP -v circle -c red -i red -x 577.61822174192321 -y 529.452816503799 -Z 0.0
n -t * -a 0.0.8 -s 8 -S UP -v circle -c red -i red -x 513.48697934927748 -y 575.66192330590536 -Z 0.0
n -t * -a 3.0.0 -s 45 -S UP -v circle -c red -i red -x 200 -y 50 -Z 0
n -t * -a 0.0.9 -s 9 -S UP -v circle -c red -i red -x 549.94500235186194 -y 525.65452774318612 -Z 0.0
n -t * -a 0.0.10 -s 10 -S UP -v circle -c red -i red -x 575.64777972905324 -y 512.23390619840188 -Z 0.0
n -t * -a 0.0.11 -s 11 -S UP -v circle -c red -i red -x 515.26147654059412 -y 599.63621776534069 -Z 0.0
n -t * -a 0.0.12 -s 12 -S UP -v circle -c red -i red -x 585.91198208085825 -y 522.68283298364042 -Z 0.0
n -t * -a 0.0.13 -s 13 -S UP -v circle -c red -i red -x 530.3739560443787 -y 595.07923787230584 -Z 0.0
n -t * -a 0.0.14 -s 14 -S UP -v circle -c red -i red -x 596.75091984530491 -y 592.7098400391219 -Z 0.0
n -t * -a 0.0.15 -s 15 -S UP -v circle -c red -i red -x 574.28153752083028 -y 549.80111259492162 -Z 0.0
n -t * -a 0.0.16 -s 16 -S UP -v circle -c red -i red -x 507.29938284833889 -y 580.72753203135335 -Z 0.0
l -t * -s 1 -d 0 -S UP -r 622000000 -D 0.014999999999999999 -c black
l -t * -s 0 -d 22 -S UP -r 622000000 -D 0.00040000000000000002 -c black
l -t * -s 22 -d 23 -S UP -r 4976000000 -D 0.01 -c black
l -t * -s 23 -d 24 -S UP -r 80000000 -D 0.014999999999999999 -c black
l -t * -s 45 -d 23 -S UP -r 80000000 -D 0.014999999999999999 -c black
+ -t 0.100083958 -s 45 -d -1 -p CM8 -e 64 -c 2 -a 0 -i 0 -k MAC 
- -t 0.100083958 -s 45 -d -1 -p CM8 -e 64 -c 2 -a 0 -i 0 -k MAC
h -t 0.100083958 -s 45 -d -1 -p CM8 -e 64 -c 2 -a 0 -i 0 -k MAC
+ -t 0.200083958 -s 45 -d -1 -p CM8 -e 64 -c 2 -a 0 -i 0 -k MAC 
- -t 0.200083958 -s 45 -d -1 -p CM8 -e 64 -c 2 -a 0 -i 0 -k MAC
h -t 0.200083958 -s 45 -d -1 -p CM8 -e 64 -c 2 -a 0 -i 0 -k MAC
+ -t 0.300083958 -s 45 -d -1 -p CM8 -e 64 -c 2 -a 0 -i 0 -k MAC 
- -t 0.300083958 -s 45 -d -1 -p CM8 -e 64 -c 2 -a 0 -i 0 -k MAC
h -t 0.300083958 -s 45 -d -1 -p CM8 -e 64 -c 2 -a 0 -i 0 -k MAC
+ -t 0.400083958 -s 45 -d -1 -p CM8 -e 64 -c 2 -a 0 -i 0 -k MAC 
- -t 0.400083958 -s 45 -d -1 -p CM8 -e 64 -c 2 -a 0 -i 0 -k MAC
h -t 0.400083958 -s 45 -d -1 -p CM8 -e 64 -c 2 -a 0 -i 0 -k MAC
+ -t 0.500083958 -s 45 -d -1 -p CM8 -e 64 -c 2 -a 0 -i 0 -k MAC 
- -t 0.500083958 -s 45 -d -1 -p CM8 -e 64 -c 2 -a 0 -i 0 -k MAC
h -t 0.500083958 -s 45 -d -1 -p CM8 -e 64 -c 2 -a 0 -i 0 -k MAC
+ -t 0.600083958 -s 45 -d -1 -p CM8 -e 64 -c 2 -a 0 -i 0 -k MAC 
- -t 0.600083958 -s 45 -d -1 -p CM8 -e 64 -c 2 -a 0 -i 0 -k MAC
h -t 0.600083958 -s 45 -d -1 -p CM8 -e 64 -c 2 -a 0 -i 0 -k MAC
+ -t 0.700083958 -s 45 -d -1 -p CM8 -e 64 -c 2 -a 0 -i 0 -k MAC 
- -t 0.700083958 -s 45 -d -1 -p CM8 -e 64 -c 2 -a 0 -i 0 -k MAC
h -t 0.700083958 -s 45 -d -1 -p CM8 -e 64 -c 2 -a 0 -i 0 -k MAC
+ -t 0.800083958 -s 45 -d -1 -p CM8 -e 64 -c 2 -a 0 -i 0 -k MAC 
- -t 0.800083958 -s 45 -d -1 -p CM8 -e 64 -c 2 -a 0 -i 0 -k MAC
h -t 0.800083958 -s 45 -d -1 -p CM8 -e 64 -c 2 -a 0 -i 0 -k MAC
+ -t 0.900083958 -s 45 -d -1 -p CM8 -e 64 -c 2 -a 0 -i 0 -k MAC 
- -t 0.900083958 -s 45 -d -1 -p CM8 -e 64 -c 2 -a 0 -i 0 -k MAC
h -t 0.900083958 -s 45 -d -1 -p CM8 -e 64 -c 2 -a 0 -i 0 -k MAC
+ -t 1.000083958 -s 45 -d -1 -p CM8 -e 64 -c 2 -a 0 -i 0 -k MAC 
- -t 1.000083958 -s 45 -d -1 -p CM8 -e 64 -c 2 -a 0 -i 0 -k MAC
h -t 1.000083958 -s 45 -d -1 -p CM8 -e 64 -c 2 -a 0 -i 0 -k MAC
+ -t 1.000435000 -s 47 -d -1 -p ARP -e 88 -c 2 -a 0 -i 0 -k MAC 
- -t 1.000435000 -s 47 -d -1 -p ARP -e 88 -c 2 -a 0 -i 0 -k MAC
h -t 1.000435000 -s 47 -d -1 -p ARP -e 88 -c 2 -a 0 -i 0 -k MAC
d -t 1.013875000 -s 47 -d 45 -p cbr -e 777 -c 2 -a 0 -i 14 -k IFQ
+ -t 1.013950000 -s 47 -d -1 -p ARP -e 88 -c 2 -a 0 -i 0 -k MAC 
- -t 1.013950000 -s 47 -d -1 -p ARP -e 88 -c 2 -a 0 -i 0 -k MAC
h -t 1.013950000 -s 47 -d -1 -p ARP -e 88 -c 2 -a 0 -i 0 -k MAC
d -t 1.027750000 -s 47 -d 45 -p cbr -e 777 -c 2 -a 0 -i 17 -k IFQ
+ -t 1.027905000 -s 47 -d -1 -p ARP -e 88 -c 2 -a 0 -i 0 -k MAC 
- -t 1.027905000 -s 47 -d -1 -p ARP -e 88 -c 2 -a 0 -i 0 -k MAC
h -t 1.027905000 -s 47 -d -1 -p ARP -e 88 -c 2 -a 0 -i 0 -k MAC
+ -t 1.040015 -s 1 -d 0 -p AM_Data -e 40 -c 0 -i 13 -a 0 -x {5.0.0.0 3.0.2.0 -1 ------- null}
- -t 1.040015 -s 1 -d 0 -p AM_Data -e 40 -c 0 -i 13 -a 0 -x {5.0.0.0 3.0.2.0 -1 ------- null}
h -t 1.040015 -s 1 -d 0 -p AM_Data -e 40 -c 0 -i 13 -a 0 -x {5.0.0.0 3.0.2.0 -1 ------- null}
+ -t 1.040015 -s 1 -d 0 -p AM_Data -e 40 -c 0 -i 13 -a 0 -x {5.0.0.0 3.0.2.0 -1 ------- null}
+ -t 1.040015 -s 1 -d 0 -p AM_Data -e 40 -c 0 -i 13 -a 0 -x {5.0.0.0 3.0.2.0 -1 ------- null}
+ -t 1.040015 -s 1 -d 0 -p AM_Data -e 40 -c 0 -i 13 -a 0 -x {5.0.0.0 3.0.2.0 -1 ------- null}
+ -t 1.040015 -s 1 -d 0 -p AM_Data -e 40 -c 0 -i 13 -a 0 -x {5.0.0.0 3.0.2.0 -1 ------- null}
+ -t 1.040015 -s 1 -d 0 -p AM_Data -e 40 -c 0 -i 13 -a 0 -x {5.0.0.0 3.0.2.0 -1 ------- null}
+ -t 1.040015 -s 1 -d 0 -p AM_Data -e 40 -c 0 -i 13 -a 0 -x {5.0.0.0 3.0.2.0 -1 ------- null}
+ -t 1.040015 -s 1 -d 0 -p AM_Data -e 40 -c 0 -i 13 -a 0 -x {5.0.0.0 3.0.2.0 -1 ------- null}
+ -t 1.040015 -s 1 -d 0 -p AM_Data -e 40 -c 0 -i 13 -a 0 -x {5.0.0.0 3.0.2.0 -1 ------- null}
+ -t 1.040015 -s 1 -d 0 -p AM_Data -e 40 -c 0 -i 13 -a 0 -x {5.0.0.0 3.0.2.0 -1 ------- null}
+ -t 1.040015 -s 1 -d 0 -p AM_Data -e 40 -c 0 -i 13 -a 0 -x {5.0.0.0 3.0.2.0 -1 ------- null}
+ -t 1.040015 -s 1 -d 0 -p AM_Data -e 40 -c 0 -i 13 -a 0 -x {5.0.0.0 3.0.2.0 -1 ------- null}
+ -t 1.040015 -s 1 -d 0 -p AM_Data -e 40 -c 0 -i 13 -a 0 -x {5.0.0.0 3.0.2.0 -1 ------- null}
+ -t 1.040015 -s 1 -d 0 -p AM_Data -e 40 -c 0 -i 13 -a 0 -x {5.0.0.0 3.0.2.0 -1 ------- null}
+ -t 1.040015 -s 1 -d 0 -p AM_Data -e 40 -c 0 -i 13 -a 0 -x {5.0.0.0 3.0.2.0 -1 ------- null}
+ -t 1.040015 -s 1 -d 0 -p AM_Data -e 40 -c 0 -i 13 -a 0 -x {5.0.0.0 3.0.2.0 -1 ------- null}
+ -t 1.040015 -s 1 -d 0 -p AM_Data -e 40 -c 0 -i 13 -a 0 -x {5.0.0.0 3.0.2.0 -1 ------- null}
+ -t 1.040015 -s 1 -d 0 -p AM_Data -e 40 -c 0 -i 16 -a 0 -x {5.0.0.0 3.0.2.0 -1 ------- null}
+ -t 1.040015 -s 1 -d 0 -p AM_Data -e 40 -c 0 -i 16 -a 0 -x {5.0.0.0 3.0.2.0 -1 ------- null}
+ -t 1.040015 -s 1 -d 0 -p AM_Data -e 40 -c 0 -i 16 -a 0 -x {5.0.0.0 3.0.2.0 -1 ------- null}
+ -t 1.040015 -s 1 -d 0 -p AM_Data -e 40 -c 0 -i 16 -a 0 -x {5.0.0.0 3.0.2.0 -1 ------- null}
+ -t 1.040015 -s 1 -d 0 -p AM_Data -e 40 -c 0 -i 16 -a 0 -x {5.0.0.0 3.0.2.0 -1 ------- null}
+ -t 1.040015 -s 1 -d 0 -p AM_Data -e 40 -c 0 -i 16 -a 0 -x {5.0.0.0 3.0.2.0 -1 ------- null}
+ -t 1.040015 -s 1 -d 0 -p AM_Data -e 40 -c 0 -i 16 -a 0 -x {5.0.0.0 3.0.2.0 -1 ------- null}
- -t 1.04001551446945 -s 1 -d 0 -p AM_Data -e 40 -c 0 -i 13 -a 0 -x {5.0.0.0 3.0.2.0 -1 ------- null}
h -t 1.04001551446945 -s 1 -d 0 -p AM_Data -e 40 -c 0 -i 13 -a 0 -x {5.0.0.0 3.0.2.0 -1 ------- null}
- -t 1.04001602893891 -s 1 -d 0 -p AM_Data -e 40 -c 0 -i 13 -a 0 -x {5.0.0.0 3.0.2.0 -1 ------- null}
h -t 1.04001602893891 -s 1 -d 0 -p AM_Data -e 40 -c 0 -i 13 -a 0 -x {5.0.0.0 3.0.2.0 -1 ------- null}
- -t 1.04001654340836 -s 1 -d 0 -p AM_Data -e 40 -c 0 -i 13 -a 0 -x {5.0.0.0 3.0.2.0 -1 ------- null}
h -t 1.04001654340836 -s 1 -d 0 -p AM_Data -e 40 -c 0 -i 13 -a 0 -x {5.0.0.0 3.0.2.0 -1 ------- null}
- -t 1.04001705787781 -s 1 -d 0 -p AM_Data -e 40 -c 0 -i 13 -a 0 -x {5.0.0.0 3.0.2.0 -1 ------- null}
h -t 1.04001705787781 -s 1 -d 0 -p AM_Data -e 40 -c 0 -i 13 -a 0 -x {5.0.0.0 3.0.2.0 -1 ------- null}
- -t 1.04001757234727 -s 1 -d 0 -p AM_Data -e 40 -c 0 -i 13 -a 0 -x {5.0.0.0 3.0.2.0 -1 ------- null}
h -t 1.04001757234727 -s 1 -d 0 -p AM_Data -e 40 -c 0 -i 13 -a 0 -x {5.0.0.0 3.0.2.0 -1 ------- null}
- -t 1.04001808681672 -s 1 -d 0 -p AM_Data -e 40 -c 0 -i 13 -a 0 -x {5.0.0.0 3.0.2.0 -1 ------- null}
h -t 1.04001808681672 -s 1 -d 0 -p AM_Data -e 40 -c 0 -i 13 -a 0 -x {5.0.0.0 3.0.2.0 -1 ------- null}
- -t 1.04001860128617 -s 1 -d 0 -p AM_Data -e 40 -c 0 -i 13 -a 0 -x {5.0.0.0 3.0.2.0 -1 ------- null}
h -t 1.04001860128617 -s 1 -d 0 -p AM_Data -e 40 -c 0 -i 13 -a 0 -x {5.0.0.0 3.0.2.0 -1 ------- null}
- -t 1.04001911575563 -s 1 -d 0 -p AM_Data -e 40 -c 0 -i 13 -a 0 -x {5.0.0.0 3.0.2.0 -1 ------- null}
h -t 1.04001911575563 -s 1 -d 0 -p AM_Data -e 40 -c 0 -i 13 -a 0 -x {5.0.0.0 3.0.2.0 -1 ------- null}
- -t 1.04001963022508 -s 1 -d 0 -p AM_Data -e 40 -c 0 -i 13 -a 0 -x {5.0.0.0 3.0.2.0 -1 ------- null}
h -t 1.04001963022508 -s 1 -d 0 -p AM_Data -e 40 -c 0 -i 13 -a 0 -x {5.0.0.0 3.0.2.0 -1 ------- null}
- -t 1.04002014469454 -s 1 -d 0 -p AM_Data -e 40 -c 0 -i 13 -a 0 -x {5.0.0.0 3.0.2.0 -1 ------- null}
h -t 1.04002014469454 -s 1 -d 0 -p AM_Data -e 40 -c 0 -i 13 -a 0 -x {5.0.0.0 3.0.2.0 -1 ------- null}
- -t 1.04002065916399 -s 1 -d 0 -p AM_Data -e 40 -c 0 -i 13 -a 0 -x {5.0.0.0 3.0.2.0 -1 ------- null}
h -t 1.04002065916399 -s 1 -d 0 -p AM_Data -e 40 -c 0 -i 13 -a 0 -x {5.0.0.0 3.0.2.0 -1 ------- null}
- -t 1.04002117363344 -s 1 -d 0 -p AM_Data -e 40 -c 0 -i 13 -a 0 -x {5.0.0.0 3.0.2.0 -1 ------- null}
h -t 1.04002117363344 -s 1 -d 0 -p AM_Data -e 40 -c 0 -i 13 -a 0 -x {5.0.0.0 3.0.2.0 -1 ------- null}
- -t 1.0400216881029 -s 1 -d 0 -p AM_Data -e 40 -c 0 -i 13 -a 0 -x {5.0.0.0 3.0.2.0 -1 ------- null}
h -t 1.0400216881029 -s 1 -d 0 -p AM_Data -e 40 -c 0 -i 13 -a 0 -x {5.0.0.0 3.0.2.0 -1 ------- null}
- -t 1.04002220257235 -s 1 -d 0 -p AM_Data -e 40 -c 0 -i 13 -a 0 -x {5.0.0.0 3.0.2.0 -1 ------- null}
h -t 1.04002220257235 -s 1 -d 0 -p AM_Data -e 40 -c 0 -i 13 -a 0 -x {5.0.0.0 3.0.2.0 -1 ------- null}
- -t 1.0400227170418 -s 1 -d 0 -p AM_Data -e 40 -c 0 -i 13 -a 0 -x {5.0.0.0 3.0.2.0 -1 ------- null}
h -t 1.0400227170418 -s 1 -d 0 -p AM_Data -e 40 -c 0 -i 13 -a 0 -x {5.0.0.0 3.0.2.0 -1 ------- null}
- -t 1.04002323151126 -s 1 -d 0 -p AM_Data -e 40 -c 0 -i 13 -a 0 -x {5.0.0.0 3.0.2.0 -1 ------- null}
h -t 1.04002323151126 -s 1 -d 0 -p AM_Data -e 40 -c 0 -i 13 -a 0 -x {5.0.0.0 3.0.2.0 -1 ------- null}
- -t 1.04002374598071 -s 1 -d 0 -p AM_Data -e 40 -c 0 -i 16 -a 0 -x {5.0.0.0 3.0.2.0 -1 ------- null}
h -t 1.04002374598071 -s 1 -d 0 -p AM_Data -e 40 -c 0 -i 16 -a 0 -x {5.0.0.0 3.0.2.0 -1 ------- null}
- -t 1.04002426045016 -s 1 -d 0 -p AM_Data -e 40 -c 0 -i 16 -a 0 -x {5.0.0.0 3.0.2.0 -1 ------- null}
h -t 1.04002426045016 -s 1 -d 0 -p AM_Data -e 40 -c 0 -i 16 -a 0 -x {5.0.0.0 3.0.2.0 -1 ------- null}
- -t 1.04002477491962 -s 1 -d 0 -p AM_Data -e 40 -c 0 -i 16 -a 0 -x {5.0.0.0 3.0.2.0 -1 ------- null}
h -t 1.04002477491962 -s 1 -d 0 -p AM_Data -e 40 -c 0 -i 16 -a 0 -x {5.0.0.0 3.0.2.0 -1 ------- null}
- -t 1.04002528938907 -s 1 -d 0 -p AM_Data -e 40 -c 0 -i 16 -a 0 -x {5.0.0.0 3.0.2.0 -1 ------- null}
h -t 1.04002528938907 -s 1 -d 0 -p AM_Data -e 40 -c 0 -i 16 -a 0 -x {5.0.0.0 3.0.2.0 -1 ------- null}
- -t 1.04002580385852 -s 1 -d 0 -p AM_Data -e 40 -c 0 -i 16 -a 0 -x {5.0.0.0 3.0.2.0 -1 ------- null}
h -t 1.04002580385852 -s 1 -d 0 -p AM_Data -e 40 -c 0 -i 16 -a 0 -x {5.0.0.0 3.0.2.0 -1 ------- null}
- -t 1.04002631832798 -s 1 -d 0 -p AM_Data -e 40 -c 0 -i 16 -a 0 -x {5.0.0.0 3.0.2.0 -1 ------- null}
h -t 1.04002631832798 -s 1 -d 0 -p AM_Data -e 40 -c 0 -i 16 -a 0 -x {5.0.0.0 3.0.2.0 -1 ------- null}
- -t 1.04002683279743 -s 1 -d 0 -p AM_Data -e 40 -c 0 -i 16 -a 0 -x {5.0.0.0 3.0.2.0 -1 ------- null}
h -t 1.04002683279743 -s 1 -d 0 -p AM_Data -e 40 -c 0 -i 16 -a 0 -x {5.0.0.0 3.0.2.0 -1 ------- null}
d -t 1.041625000 -s 47 -d 45 -p cbr -e 777 -c 2 -a 0 -i 20 -k RTR
d -t 1.041625000 -s 47 -d 45 -p cbr -e 777 -c 2 -a 0 -i 23 -k RTR
r -t 1.05501551446945 -s 1 -d 0 -p AM_Data -e 40 -c 0 -i 13 -a 0 -x {5.0.0.0 3.0.2.0 -1 ------- null}
r -t 1.05501602893891 -s 1 -d 0 -p AM_Data -e 40 -c 0 -i 13 -a 0 -x {5.0.0.0 3.0.2.0 -1 ------- null}
r -t 1.05501654340836 -s 1 -d 0 -p AM_Data -e 40 -c 0 -i 13 -a 0 -x {5.0.0.0 3.0.2.0 -1 ------- null}
r -t 1.05501705787781 -s 1 -d 0 -p AM_Data -e 40 -c 0 -i 13 -a 0 -x {5.0.0.0 3.0.2.0 -1 ------- null}
r -t 1.05501757234727 -s 1 -d 0 -p AM_Data -e 40 -c 0 -i 13 -a 0 -x {5.0.0.0 3.0.2.0 -1 ------- null}
r -t 1.05501808681672 -s 1 -d 0 -p AM_Data -e 40 -c 0 -i 13 -a 0 -x {5.0.0.0 3.0.2.0 -1 ------- null}
r -t 1.05501860128617 -s 1 -d 0 -p AM_Data -e 40 -c 0 -i 13 -a 0 -x {5.0.0.0 3.0.2.0 -1 ------- null}
r -t 1.05501911575563 -s 1 -d 0 -p AM_Data -e 40 -c 0 -i 13 -a 0 -x {5.0.0.0 3.0.2.0 -1 ------- null}
r -t 1.05501963022508 -s 1 -d 0 -p AM_Data -e 40 -c 0 -i 13 -a 0 -x {5.0.0.0 3.0.2.0 -1 ------- null}
r -t 1.05502014469454 -s 1 -d 0 -p AM_Data -e 40 -c 0 -i 13 -a 0 -x {5.0.0.0 3.0.2.0 -1 ------- null}
r -t 1.05502065916399 -s 1 -d 0 -p AM_Data -e 40 -c 0 -i 13 -a 0 -x {5.0.0.0 3.0.2.0 -1 ------- null}
r -t 1.05502117363344 -s 1 -d 0 -p AM_Data -e 40 -c 0 -i 13 -a 0 -x {5.0.0.0 3.0.2.0 -1 ------- null}
r -t 1.0550216881029 -s 1 -d 0 -p AM_Data -e 40 -c 0 -i 13 -a 0 -x {5.0.0.0 3.0.2.0 -1 ------- null}
r -t 1.05502220257235 -s 1 -d 0 -p AM_Data -e 40 -c 0 -i 13 -a 0 -x {5.0.0.0 3.0.2.0 -1 ------- null}
r -t 1.0550227170418 -s 1 -d 0 -p AM_Data -e 40 -c 0 -i 13 -a 0 -x {5.0.0.0 3.0.2.0 -1 ------- null}
r -t 1.05502323151126 -s 1 -d 0 -p AM_Data -e 40 -c 0 -i 13 -a 0 -x {5.0.0.0 3.0.2.0 -1 ------- null}
r -t 1.05502374598071 -s 1 -d 0 -p AM_Data -e 40 -c 0 -i 13 -a 0 -x {5.0.0.0 3.0.2.0 -1 ------- null}
r -t 1.05502426045016 -s 1 -d 0 -p AM_Data -e 40 -c 0 -i 16 -a 0 -x {5.0.0.0 3.0.2.0 -1 ------- null}
r -t 1.05502477491962 -s 1 -d 0 -p AM_Data -e 40 -c 0 -i 16 -a 0 -x {5.0.0.0 3.0.2.0 -1 ------- null}
r -t 1.05502528938907 -s 1 -d 0 -p AM_Data -e 40 -c 0 -i 16 -a 0 -x {5.0.0.0 3.0.2.0 -1 ------- null}
r -t 1.05502580385852 -s 1 -d 0 -p AM_Data -e 40 -c 0 -i 16 -a 0 -x {5.0.0.0 3.0.2.0 -1 ------- null}
r -t 1.05502631832798 -s 1 -d 0 -p AM_Data -e 40 -c 0 -i 16 -a 0 -x {5.0.0.0 3.0.2.0 -1 ------- null}
r -t 1.05502683279743 -s 1 -d 0 -p AM_Data -e 40 -c 0 -i 16 -a 0 -x {5.0.0.0 3.0.2.0 -1 ------- null}
r -t 1.05502734726688 -s 1 -d 0 -p AM_Data -e 40 -c 0 -i 16 -a 0 -x {5.0.0.0 3.0.2.0 -1 ------- null}
+ -t 1.05507374598071 -s 0 -d 22 -p cbr -e 666 -c 0 -i 13 -a 0 -x {5.0.0.0 3.0.2.0 0 ------- null}
- -t 1.05507374598071 -s 0 -d 22 -p cbr -e 666 -c 0 -i 13 -a 0 -x {5.0.0.0 3.0.2.0 0 ------- null}
h -t 1.05507374598071 -s 0 -d 22 -p cbr -e 666 -c 0 -i 13 -a 0 -x {5.0.0.0 3.0.2.0 -1 ------- null}
r -t 1.05548231189711 -s 0 -d 22 -p cbr -e 666 -c 0 -i 13 -a 0 -x {5.0.0.0 3.0.2.0 0 ------- null}
+ -t 1.05548231189711 -s 22 -d 23 -p cbr -e 666 -c 0 -i 13 -a 0 -x {5.0.0.0 3.0.2.0 0 ------- null}
- -t 1.05548231189711 -s 22 -d 23 -p cbr -e 666 -c 0 -i 13 -a 0 -x {5.0.0.0 3.0.2.0 0 ------- null}
h -t 1.05548231189711 -s 22 -d 23 -p cbr -e 666 -c 0 -i 13 -a 0 -x {5.0.0.0 3.0.2.0 -1 ------- null}
+ -t 1.056095000 -s 47 -d -1 -p ARP -e 88 -c 2 -a 0 -i 0 -k MAC 
- -t 1.056095000 -s 47 -d -1 -p ARP -e 88 -c 2 -a 0 -i 0 -k MAC
h -t 1.056095000 -s 47 -d -1 -p ARP -e 88 -c 2 -a 0 -i 0 -k MAC
+ -t 1.060015 -s 1 -d 0 -p AM_Data -e 40 -c 0 -i 16 -a 0 -x {5.0.0.0 3.0.2.0 -1 ------- null}
- -t 1.060015 -s 1 -d 0 -p AM_Data -e 40 -c 0 -i 16 -a 0 -x {5.0.0.0 3.0.2.0 -1 ------- null}
h -t 1.060015 -s 1 -d 0 -p AM_Data -e 40 -c 0 -i 16 -a 0 -x {5.0.0.0 3.0.2.0 -1 ------- null}
+ -t 1.060015 -s 1 -d 0 -p AM_Data -e 40 -c 0 -i 16 -a 0 -x {5.0.0.0 3.0.2.0 -1 ------- null}
+ -t 1.060015 -s 1 -d 0 -p AM_Data -e 40 -c 0 -i 16 -a 0 -x {5.0.0.0 3.0.2.0 -1 ------- null}
+ -t 1.060015 -s 1 -d 0 -p AM_Data -e 40 -c 0 -i 16 -a 0 -x {5.0.0.0 3.0.2.0 -1 ------- null}
+ -t 1.060015 -s 1 -d 0 -p AM_Data -e 40 -c 0 -i 16 -a 0 -x {5.0.0.0 3.0.2.0 -1 ------- null}
+ -t 1.060015 -s 1 -d 0 -p AM_Data -e 40 -c 0 -i 16 -a 0 -x {5.0.0.0 3.0.2.0 -1 ------- null}
+ -t 1.060015 -s 1 -d 0 -p AM_Data -e 40 -c 0 -i 16 -a 0 -x {5.0.0.0 3.0.2.0 -1 ------- null}
+ -t 1.060015 -s 1 -d 0 -p AM_Data -e 40 -c 0 -i 16 -a 0 -x {5.0.0.0 3.0.2.0 -1 ------- null}
+ -t 1.060015 -s 1 -d 0 -p AM_Data -e 40 -c 0 -i 16 -a 0 -x {5.0.0.0 3.0.2.0 -1 ------- null}
+ -t 1.060015 -s 1 -d 0 -p AM_Data -e 40 -c 0 -i 16 -a 0 -x {5.0.0.0 3.0.2.0 -1 ------- null}
+ -t 1.060015 -s 1 -d 0 -p AM_Data -e 40 -c 0 -i 19 -a 0 -x {5.0.0.0 3.0.2.0 -1 ------- null}
+ -t 1.060015 -s 1 -d 0 -p AM_Data -e 40 -c 0 -i 19 -a 0 -x {5.0.0.0 3.0.2.0 -1 ------- null}
+ -t 1.060015 -s 1 -d 0 -p AM_Data -e 40 -c 0 -i 19 -a 0 -x {5.0.0.0 3.0.2.0 -1 ------- null}
+ -t 1.060015 -s 1 -d 0 -p AM_Data -e 40 -c 0 -i 19 -a 0 -x {5.0.0.0 3.0.2.0 -1 ------- null}
+ -t 1.060015 -s 1 -d 0 -p AM_Data -e 40 -c 0 -i 19 -a 0 -x {5.0.0.0 3.0.2.0 -1 ------- null}
+ -t 1.060015 -s 1 -d 0 -p AM_Data -e 40 -c 0 -i 19 -a 0 -x {5.0.0.0 3.0.2.0 -1 ------- null}
+ -t 1.060015 -s 1 -d 0 -p AM_Data -e 40 -c 0 -i 19 -a 0 -x {5.0.0.0 3.0.2.0 -1 ------- null}
+ -t 1.060015 -s 1 -d 0 -p AM_Data -e 40 -c 0 -i 19 -a 0 -x {5.0.0.0 3.0.2.0 -1 ------- null}
+ -t 1.060015 -s 1 -d 0 -p AM_Data -e 40 -c 0 -i 19 -a 0 -x {5.0.0.0 3.0.2.0 -1 ------- null}
+ -t 1.060015 -s 1 -d 0 -p AM_Data -e 40 -c 0 -i 19 -a 0 -x {5.0.0.0 3.0.2.0 -1 ------- null}
+ -t 1.060015 -s 1 -d 0 -p AM_Data -e 40 -c 0 -i 19 -a 0 -x {5.0.0.0 3.0.2.0 -1 ------- null}
+ -t 1.060015 -s 1 -d 0 -p AM_Data -e 40 -c 0 -i 19 -a 0 -x {5.0.0.0 3.0.2.0 -1 ------- null}
+ -t 1.060015 -s 1 -d 0 -p AM_Data -e 40 -c 0 -i 19 -a 0 -x {5.0.0.0 3.0.2.0 -1 ------- null}
+ -t 1.060015 -s 1 -d 0 -p AM_Data -e 40 -c 0 -i 19 -a 0 -x {5.0.0.0 3.0.2.0 -1 ------- null}
- -t 1.06001551446945 -s 1 -d 0 -p AM_Data -e 40 -c 0 -i 16 -a 0 -x {5.0.0.0 3.0.2.0 -1 ------- null}
h -t 1.06001551446945 -s 1 -d 0 -p AM_Data -e 40 -c 0 -i 16 -a 0 -x {5.0.0.0 3.0.2.0 -1 ------- null}
- -t 1.06001602893891 -s 1 -d 0 -p AM_Data -e 40 -c 0 -i 16 -a 0 -x {5.0.0.0 3.0.2.0 -1 ------- null}
h -t 1.06001602893891 -s 1 -d 0 -p AM_Data -e 40 -c 0 -i 16 -a 0 -x {5.0.0.0 3.0.2.0 -1 ------- null}
- -t 1.06001654340836 -s 1 -d 0 -p AM_Data -e 40 -c 0 -i 16 -a 0 -x {5.0.0.0 3.0.2.0 -1 ------- null}
h -t 1.06001654340836 -s 1 -d 0 -p AM_Data -e 40 -c 0 -i 16 -a 0 -x {5.0.0.0 3.0.2.0 -1 ------- null}
- -t 1.06001705787781 -s 1 -d 0 -p AM_Data -e 40 -c 0 -i 16 -a 0 -x {5.0.0.0 3.0.2.0 -1 ------- null}
h -t 1.06001705787781 -s 1 -d 0 -p AM_Data -e 40 -c 0 -i 16 -a 0 -x {5.0.0.0 3.0.2.0 -1 ------- null}
- -t 1.06001757234727 -s 1 -d 0 -p AM_Data -e 40 -c 0 -i 16 -a 0 -x {5.0.0.0 3.0.2.0 -1 ------- null}
h -t 1.06001757234727 -s 1 -d 0 -p AM_Data -e 40 -c 0 -i 16 -a 0 -x {5.0.0.0 3.0.2.0 -1 ------- null}
- -t 1.06001808681672 -s 1 -d 0 -p AM_Data -e 40 -c 0 -i 16 -a 0 -x {5.0.0.0 3.0.2.0 -1 ------- null}
h -t 1.06001808681672 -s 1 -d 0 -p AM_Data -e 40 -c 0 -i 16 -a 0 -x {5.0.0.0 3.0.2.0 -1 ------- null}
- -t 1.06001860128617 -s 1 -d 0 -p AM_Data -e 40 -c 0 -i 16 -a 0 -x {5.0.0.0 3.0.2.0 -1 ------- null}
h -t 1.06001860128617 -s 1 -d 0 -p AM_Data -e 40 -c 0 -i 16 -a 0 -x {5.0.0.0 3.0.2.0 -1 ------- null}
- -t 1.06001911575563 -s 1 -d 0 -p AM_Data -e 40 -c 0 -i 16 -a 0 -x {5.0.0.0 3.0.2.0 -1 ------- null}
h -t 1.06001911575563 -s 1 -d 0 -p AM_Data -e 40 -c 0 -i 16 -a 0 -x {5.0.0.0 3.0.2.0 -1 ------- null}
- -t 1.06001963022508 -s 1 -d 0 -p AM_Data -e 40 -c 0 -i 16 -a 0 -x {5.0.0.0 3.0.2.0 -1 ------- null}
h -t 1.06001963022508 -s 1 -d 0 -p AM_Data -e 40 -c 0 -i 16 -a 0 -x {5.0.0.0 3.0.2.0 -1 ------- null}
- -t 1.06002014469454 -s 1 -d 0 -p AM_Data -e 40 -c 0 -i 19 -a 0 -x {5.0.0.0 3.0.2.0 -1 ------- null}
h -t 1.06002014469454 -s 1 -d 0 -p AM_Data -e 40 -c 0 -i 19 -a 0 -x {5.0.0.0 3.0.2.0 -1 ------- null}
- -t 1.06002065916399 -s 1 -d 0 -p AM_Data -e 40 -c 0 -i 19 -a 0 -x {5.0.0.0 3.0.2.0 -1 ------- null}
h -t 1.06002065916399 -s 1 -d 0 -p AM_Data -e 40 -c 0 -i 19 -a 0 -x {5.0.0.0 3.0.2.0 -1 ------- null}
- -t 1.06002117363344 -s 1 -d 0 -p AM_Data -e 40 -c 0 -i 19 -a 0 -x {5.0.0.0 3.0.2.0 -1 ------- null}
h -t 1.06002117363344 -s 1 -d 0 -p AM_Data -e 40 -c 0 -i 19 -a 0 -x {5.0.0.0 3.0.2.0 -1 ------- null}
- -t 1.0600216881029 -s 1 -d 0 -p AM_Data -e 40 -c 0 -i 19 -a 0 -x {5.0.0.0 3.0.2.0 -1 ------- null}
h -t 1.0600216881029 -s 1 -d 0 -p AM_Data -e 40 -c 0 -i 19 -a 0 -x {5.0.0.0 3.0.2.0 -1 ------- null}
- -t 1.06002220257235 -s 1 -d 0 -p AM_Data -e 40 -c 0 -i 19 -a 0 -x {5.0.0.0 3.0.2.0 -1 ------- null}
h -t 1.06002220257235 -s 1 -d 0 -p AM_Data -e 40 -c 0 -i 19 -a 0 -x {5.0.0.0 3.0.2.0 -1 ------- null}
- -t 1.0600227170418 -s 1 -d 0 -p AM_Data -e 40 -c 0 -i 19 -a 0 -x {5.0.0.0 3.0.2.0 -1 ------- null}
h -t 1.0600227170418 -s 1 -d 0 -p AM_Data -e 40 -c 0 -i 19 -a 0 -x {5.0.0.0 3.0.2.0 -1 ------- null}
- -t 1.06002323151126 -s 1 -d 0 -p AM_Data -e 40 -c 0 -i 19 -a 0 -x {5.0.0.0 3.0.2.0 -1 ------- null}
h -t 1.06002323151126 -s 1 -d 0 -p AM_Data -e 40 -c 0 -i 19 -a 0 -x {5.0.0.0 3.0.2.0 -1 ------- null}
- -t 1.06002374598071 -s 1 -d 0 -p AM_Data -e 40 -c 0 -i 19 -a 0 -x {5.0.0.0 3.0.2.0 -1 ------- null}
h -t 1.06002374598071 -s 1 -d 0 -p AM_Data -e 40 -c 0 -i 19 -a 0 -x {5.0.0.0 3.0.2.0 -1 ------- null}
- -t 1.06002426045016 -s 1 -d 0 -p AM_Data -e 40 -c 0 -i 19 -a 0 -x {5.0.0.0 3.0.2.0 -1 ------- null}
h -t 1.06002426045016 -s 1 -d 0 -p AM_Data -e 40 -c 0 -i 19 -a 0 -x {5.0.0.0 3.0.2.0 -1 ------- null}
- -t 1.06002477491962 -s 1 -d 0 -p AM_Data -e 40 -c 0 -i 19 -a 0 -x {5.0.0.0 3.0.2.0 -1 ------- null}
h -t 1.06002477491962 -s 1 -d 0 -p AM_Data -e 40 -c 0 -i 19 -a 0 -x {5.0.0.0 3.0.2.0 -1 ------- null}
- -t 1.06002528938907 -s 1 -d 0 -p AM_Data -e 40 -c 0 -i 19 -a 0 -x {5.0.0.0 3.0.2.0 -1 ------- null}
h -t 1.06002528938907 -s 1 -d 0 -p AM_Data -e 40 -c 0 -i 19 -a 0 -x {5.0.0.0 3.0.2.0 -1 ------- null}
- -t 1.06002580385852 -s 1 -d 0 -p AM_Data -e 40 -c 0 -i 19 -a 0 -x {5.0.0.0 3.0.2.0 -1 ------- null}
h -t 1.06002580385852 -s 1 -d 0 -p AM_Data -e 40 -c 0 -i 19 -a 0 -x {5.0.0.0 3.0.2.0 -1 ------- null}
- -t 1.06002631832798 -s 1 -d 0 -p AM_Data -e 40 -c 0 -i 19 -a 0 -x {5.0.0.0 3.0.2.0 -1 ------- null}
h -t 1.06002631832798 -s 1 -d 0 -p AM_Data -e 40 -c 0 -i 19 -a 0 -x {5.0.0.0 3.0.2.0 -1 ------- null}
- -t 1.06002683279743 -s 1 -d 0 -p AM_Data -e 40 -c 0 -i 19 -a 0 -x {5.0.0.0 3.0.2.0 -1 ------- null}
h -t 1.06002683279743 -s 1 -d 0 -p AM_Data -e 40 -c 0 -i 19 -a 0 -x {5.0.0.0 3.0.2.0 -1 ------- null}
r -t 1.06548338263666 -s 22 -d 23 -p cbr -e 666 -c 0 -i 13 -a 0 -x {5.0.0.0 3.0.2.0 0 ------- null}
+ -t 1.06548338263666 -s 23 -d 45 -p cbr -e 666 -c 0 -i 13 -a 0 -x {5.0.0.0 3.0.2.0 0 ------- null}
- -t 1.06548338263666 -s 23 -d 45 -p cbr -e 666 -c 0 -i 13 -a 0 -x {5.0.0.0 3.0.2.0 0 ------- null}
h -t 1.06548338263666 -s 23 -d 45 -p cbr -e 666 -c 0 -i 13 -a 0 -x {5.0.0.0 3.0.2.0 -1 ------- null}
d -t 1.069375000 -s 47 -d 45 -p cbr -e 777 -c 2 -a 0 -i 26 -k IFQ
+ -t 1.069550000 -s 47 -d -1 -p ARP -e 88 -c 2 -a 0 -i 0 -k MAC 
- -t 1.069550000 -s 47 -d -1 -p ARP -e 88 -c 2 -a 0 -i 0 -k MAC
h -t 1.069550000 -s 47 -d -1 -p ARP -e 88 -c 2 -a 0 -i 0 -k MAC
r -t 1.07501551446945 -s 1 -d 0 -p AM_Data -e 40 -c 0 -i 16 -a 0 -x {5.0.0.0 3.0.2.0 -1 ------- null}
r -t 1.07501602893891 -s 1 -d 0 -p AM_Data -e 40 -c 0 -i 16 -a 0 -x {5.0.0.0 3.0.2.0 -1 ------- null}
r -t 1.07501654340836 -s 1 -d 0 -p AM_Data -e 40 -c 0 -i 16 -a 0 -x {5.0.0.0 3.0.2.0 -1 ------- null}
r -t 1.07501705787781 -s 1 -d 0 -p AM_Data -e 40 -c 0 -i 16 -a 0 -x {5.0.0.0 3.0.2.0 -1 ------- null}
r -t 1.07501757234727 -s 1 -d 0 -p AM_Data -e 40 -c 0 -i 16 -a 0 -x {5.0.0.0 3.0.2.0 -1 ------- null}
r -t 1.07501808681672 -s 1 -d 0 -p AM_Data -e 40 -c 0 -i 16 -a 0 -x {5.0.0.0 3.0.2.0 -1 ------- null}
r -t 1.07501860128617 -s 1 -d 0 -p AM_Data -e 40 -c 0 -i 16 -a 0 -x {5.0.0.0 3.0.2.0 -1 ------- null}
r -t 1.07501911575563 -s 1 -d 0 -p AM_Data -e 40 -c 0 -i 16 -a 0 -x {5.0.0.0 3.0.2.0 -1 ------- null}
r -t 1.07501963022508 -s 1 -d 0 -p AM_Data -e 40 -c 0 -i 16 -a 0 -x {5.0.0.0 3.0.2.0 -1 ------- null}
r -t 1.07502014469454 -s 1 -d 0 -p AM_Data -e 40 -c 0 -i 16 -a 0 -x {5.0.0.0 3.0.2.0 -1 ------- null}
r -t 1.07502065916399 -s 1 -d 0 -p AM_Data -e 40 -c 0 -i 19 -a 0 -x {5.0.0.0 3.0.2.0 -1 ------- null}
r -t 1.07502117363344 -s 1 -d 0 -p AM_Data -e 40 -c 0 -i 19 -a 0 -x {5.0.0.0 3.0.2.0 -1 ------- null}
r -t 1.0750216881029 -s 1 -d 0 -p AM_Data -e 40 -c 0 -i 19 -a 0 -x {5.0.0.0 3.0.2.0 -1 ------- null}
r -t 1.07502220257235 -s 1 -d 0 -p AM_Data -e 40 -c 0 -i 19 -a 0 -x {5.0.0.0 3.0.2.0 -1 ------- null}
r -t 1.0750227170418 -s 1 -d 0 -p AM_Data -e 40 -c 0 -i 19 -a 0 -x {5.0.0.0 3.0.2.0 -1 ------- null}
r -t 1.07502323151126 -s 1 -d 0 -p AM_Data -e 40 -c 0 -i 19 -a 0 -x {5.0.0.0 3.0.2.0 -1 ------- null}
r -t 1.07502374598071 -s 1 -d 0 -p AM_Data -e 40 -c 0 -i 19 -a 0 -x {5.0.0.0 3.0.2.0 -1 ------- null}
r -t 1.07502426045016 -s 1 -d 0 -p AM_Data -e 40 -c 0 -i 19 -a 0 -x {5.0.0.0 3.0.2.0 -1 ------- null}
r -t 1.07502477491962 -s 1 -d 0 -p AM_Data -e 40 -c 0 -i 19 -a 0 -x {5.0.0.0 3.0.2.0 -1 ------- null}
r -t 1.07502528938907 -s 1 -d 0 -p AM_Data -e 40 -c 0 -i 19 -a 0 -x {5.0.0.0 3.0.2.0 -1 ------- null}
r -t 1.07502580385852 -s 1 -d 0 -p AM_Data -e 40 -c 0 -i 19 -a 0 -x {5.0.0.0 3.0.2.0 -1 ------- null}
r -t 1.07502631832798 -s 1 -d 0 -p AM_Data -e 40 -c 0 -i 19 -a 0 -x {5.0.0.0 3.0.2.0 -1 ------- null}
r -t 1.07502683279743 -s 1 -d 0 -p AM_Data -e 40 -c 0 -i 19 -a 0 -x {5.0.0.0 3.0.2.0 -1 ------- null}
r -t 1.07502734726688 -s 1 -d 0 -p AM_Data -e 40 -c 0 -i 19 -a 0 -x {5.0.0.0 3.0.2.0 -1 ------- null}
+ -t 1.07507014469454 -s 0 -d 22 -p cbr -e 666 -c 0 -i 16 -a 0 -x {5.0.0.0 3.0.2.0 1 ------- null}
- -t 1.07507014469454 -s 0 -d 22 -p cbr -e 666 -c 0 -i 16 -a 0 -x {5.0.0.0 3.0.2.0 1 ------- null}
h -t 1.07507014469454 -s 0 -d 22 -p cbr -e 666 -c 0 -i 16 -a 0 -x {5.0.0.0 3.0.2.0 -1 ------- null}
r -t 1.07547871061093 -s 0 -d 22 -p cbr -e 666 -c 0 -i 16 -a 0 -x {5.0.0.0 3.0.2.0 1 ------- null}
+ -t 1.07547871061093 -s 22 -d 23 -p cbr -e 666 -c 0 -i 16 -a 0 -x {5.0.0.0 3.0.2.0 1 ------- null}
- -t 1.07547871061093 -s 22 -d 23 -p cbr -e 666 -c 0 -i 16 -a 0 -x {5.0.0.0 3.0.2.0 1 ------- null}
h -t 1.07547871061093 -s 22 -d 23 -p cbr -e 666 -c 0 -i 16 -a 0 -x {5.0.0.0 3.0.2.0 -1 ------- null}
+ -t 1.080015 -s 1 -d 0 -p AM_Data -e 40 -c 0 -i 19 -a 0 -x {5.0.0.0 3.0.2.0 -1 ------- null}
- -t 1.080015 -s 1 -d 0 -p AM_Data -e 40 -c 0 -i 19 -a 0 -x {5.0.0.0 3.0.2.0 -1 ------- null}
h -t 1.080015 -s 1 -d 0 -p AM_Data -e 40 -c 0 -i 19 -a 0 -x {5.0.0.0 3.0.2.0 -1 ------- null}
+ -t 1.080015 -s 1 -d 0 -p AM_Data -e 40 -c 0 -i 19 -a 0 -x {5.0.0.0 3.0.2.0 -1 ------- null}